<LesHouchesEvents version="3.0">
<header>
<!--
#*********************************************************************
#                                                                    *
#                        MadGraph5_aMC@NLO                           *
#                                                                    *
#                           Going Beyond                             *
#                                                                    *
#                   http://madgraph.hep.uiuc.edu                     *
#                   http://madgraph.phys.ucl.ac.be                   *
#                   http://amcatnlo.cern.ch                          *
#                                                                    *
#                     The MadGraph5_aMC@NLO team                     *
#                                                                    *
#....................................................................*
#                                                                    *
# This file contains all the information necessary to reproduce      *
# the events generated:                                              *
#                                                                    *
# 1. software version                                                *
# 2. proc_card          : code generation info including model       *
# 3. param_card         : model primary parameters in the LH format  *
# 4. run_card           : running parameters (collider and cuts)     *
# 5. pythia_card        : present only if pythia has been run        *
# 6. pgs_card           : present only if pgs has been run           *
# 7. delphes_cards      : present only if delphes has been run       *
#                                                                    *
#                                                                    *
#*********************************************************************
-->
<MGVersion>
2.6.0
</MGVersion>
<MG5ProcCard>
<![CDATA[
#************************************************************                                                                                         
#*                     MadGraph5_aMC@NLO                    *                                                                                         
#*                                                          *                                                                                         
#*                *                       *                 *                                                                                         
#*                  *        * *        *                   *                                                                                         
#*                    * * * * 5 * * * *                     *                                                                                         
#*                  *        * *        *                   *                                                                                         
#*                *                       *                 *                                                                                         
#*                                                          *                                                                                         
#*                                                          *                                                                                         
#*         VERSION 2.6.0                 2017-08-16         *                                                                                         
#*                                                          *                                                                                         
#*    The MadGraph5_aMC@NLO Development Team - Find us at   *                                                                                         
#*    https://server06.fynu.ucl.ac.be/projects/madgraph     *                                                                                         
#*                                                          *                                                                                         
#************************************************************                                                                                         
#*                                                          *                                                                                         
#*               Command File for MadGraph5_aMC@NLO         *                                                                                         
#*                                                          *                                                                                         
#*     run as ./bin/mg5_aMC  filename                       *                                                                                         
#*                                                          *                                                                                         
#************************************************************                                                                                         
set stdout_level DEBUG                                                                                                                                
set group_subprocesses Auto                                                                                                                           
set ignore_six_quark_processes False                                                                                                                  
set loop_optimized_output True                                                                                                                        
set loop_color_flows False                                                                                                                            
set gauge unitary                                                                                                                                     
set complex_mass_scheme False                                                                                                                         
set max_npoint_for_channel 0                                                                                                                          
import model EWdim6NLO-no_cmass_cwwwcbcw                                                                                                              
define p = g u c d s u~ c~ d~ s~                                                                                                                      
define j = g u c d s u~ c~ d~ s~                                                                                                                      
define l+ = e+ mu+                                                                                                                                    
define l- = e- mu-                                                                                                                                    
define vl = ve vm vt                                                                                                                                  
define vl~ = ve~ vm~ vt~                                                                                                                              
define p = 21 2 4 1 3 -2 -4 -1 -3 5 -5 # pass to 5 flavors                                                                                            
define j = p                                                                                                                                          
define p = p b b~                                                                                                                                     
define j = j b b~                                                                                                                                     
define lep = e+ mu+ ta+ e- mu- ta-                                                                                                                    
define nu = ve vm vt ve~ vm~ vt~                                                                                                                      
generate p p > lep nu a QED=3 [QCD] @0                                                                                                                
add process p p > lep nu j a QED=3 [QCD] @1                                                                                                           
output WA_aTGC_NLO_FXFX -nojpeg
]]>
</MG5ProcCard>
<MGRunCard>
<![CDATA[
#***********************************************************************                                                                              
#                        MadGraph5_aMC@NLO                             *                                                                              
#                                                                      *                                                                              
#                      run_card.dat aMC@NLO                            *                                                                              
#                                                                      *                                                                              
#  This file is used to set the parameters of the run.                 *                                                                              
#                                                                      *                                                                              
#  Some notation/conventions:                                          *                                                                              
#                                                                      *                                                                              
#   Lines starting with a hash (#) are info or comments                *                                                                              
#                                                                      *                                                                              
#   mind the format:   value    = variable     ! comment               *                                                                              
#                                                                      *                                                                              
#   Some of the values of variables can be list. These can either be   *                                                                              
#   comma or space separated.                                          *                                                                              
#***********************************************************************                                                                              
#                                                                                                                                                     
#*******************                                                                                                                                  
# Running parameters                                                                                                                                  
#*******************                                                                                                                                  
#                                                                                                                                                     
#***********************************************************************                                                                              
# Tag name for the run (one word)                                      *                                                                              
#***********************************************************************                                                                              
  tag_1	= run_tag ! name of the run                                                                                                                   
#***********************************************************************                                                                              
# Number of LHE events (and their normalization) and the required      *                                                                              
# (relative) accuracy on the Xsec.                                     *                                                                              
# These values are ignored for fixed order runs                        *                                                                              
#***********************************************************************                                                                              
         10 = nevents                                                                                                                                 
  0.001	= req_acc ! Required accuracy (-1=auto determined from nevents)                                                                               
  10	= nevt_job ! Max number of events per job in event generation.                                                                                   
                 !  (-1= no split).                                                                                                                   
#***********************************************************************                                                                              
# Normalize the weights of LHE events such that they sum or average to *                                                                              
# the total cross section                                              *                                                                              
#***********************************************************************                                                                              
  average	= event_norm ! valid settings: average, sum, bias                                                                                           
#***********************************************************************                                                                              
# Number of points per itegration channel (ignored for aMC@NLO runs)   *                                                                              
#***********************************************************************                                                                              
  0.01	= req_acc_fo ! Required accuracy (-1=ignored, and use the                                                                                      
 	                   ! number of points and iter. below)                                                                                              
# These numbers are ignored except if req_acc_FO is equal to -1                                                                                       
  5000	= npoints_fo_grid ! number of points to setup grids                                                                                            
  4	= niters_fo_grid ! number of iter. to setup grids                                                                                                 
  10000	= npoints_fo ! number of points to compute Xsec                                                                                               
  6	= niters_fo ! number of iter. to compute Xsec                                                                                                     
#***********************************************************************                                                                              
# Random number seed                                                   *                                                                              
#***********************************************************************                                                                              
          1 =  iseed                                                                                                                                  
#***********************************************************************                                                                              
# Collider type and energy                                             *                                                                              
#***********************************************************************                                                                              
  1	= lpp1 ! beam 1 type (0 = no PDF)                                                                                                                 
  1	= lpp2 ! beam 2 type (0 = no PDF)                                                                                                                 
  6500.0	= ebeam1 ! beam 1 energy in GeV                                                                                                              
  6500.0	= ebeam2 ! beam 2 energy in GeV                                                                                                              
#***********************************************************************                                                                              
# PDF choice: this automatically fixes also alpha_s(MZ) and its evol.  *                                                                              
#***********************************************************************                                                                              
  lhapdf	= pdlabel ! PDF set                                                                                                                          
  292200	= lhaid ! If pdlabel=lhapdf, this is the lhapdf number. Only                                                                                 
              ! numbers for central PDF sets are allowed. Can be a list;                                                                              
              ! PDF sets beyond the first are included via reweighting.                                                                               
#***********************************************************************                                                                              
# Include the NLO Monte Carlo subtr. terms for the following parton    *                                                                              
# shower (HERWIG6 | HERWIGPP | PYTHIA6Q | PYTHIA6PT | PYTHIA8)         *                                                                              
# WARNING: PYTHIA6PT works only for processes without FSR!!!!          *                                                                              
#***********************************************************************                                                                              
  PYTHIA8	= parton_shower                                                                                                                             
  1.0	= shower_scale_factor ! multiply default shower starting                                                                                        
                                  ! scale by this factor                                                                                              
#***********************************************************************                                                                              
# Renormalization and factorization scales                             *                                                                              
# (Default functional form for the non-fixed scales is the sum of      *                                                                              
# the transverse masses divided by two of all final state particles    *                                                                              
# and partons. This can be changed in SubProcesses/set_scales.f or via *                                                                              
# dynamical_scale_choice option)                                       *                                                                              
#***********************************************************************                                                                              
  False	= fixed_ren_scale ! if .true. use fixed ren scale                                                                                             
  False	= fixed_fac_scale ! if .true. use fixed fac scale                                                                                             
  91.188	= mur_ref_fixed ! fixed ren reference scale                                                                                                  
  91.188	= muf_ref_fixed ! fixed fact reference scale                                                                                                 
  -1	= dynamical_scale_choice ! Choose one (or more) of the predefined                                                                                
           ! dynamical choices. Can be a list; scale choices beyond the                                                                               
           ! first are included via reweighting                                                                                                       
  1.0	= mur_over_ref ! ratio of current muR over reference muR                                                                                        
  1.0	= muf_over_ref ! ratio of current muF over reference muF                                                                                        
#***********************************************************************                                                                              
# Reweight variables for scale dependence and PDF uncertainty          *                                                                              
#***********************************************************************                                                                              
  1.0, 2.0, 0.5	= rw_rscale ! muR factors to be included by reweighting                                                                               
  1.0, 2.0, 0.5	= rw_fscale ! muF factors to be included by reweighting                                                                               
  True	= reweight_scale ! Reweight to get scale variation using the                                                                                   
            ! rw_rscale and rw_fscale factors. Should be a list of                                                                                    
            ! booleans of equal length to dynamical_scale_choice to                                                                                   
            ! specify for which choice to include scale dependence.                                                                                   
  True	= reweight_pdf ! Reweight to get PDF uncertainty. Should be a                                                                                  
            ! list booleans of equal length to lhaid to specify for                                                                                   
            !  which PDF set to include the uncertainties.                                                                                            
#***********************************************************************                                                                              
# Store reweight information in the LHE file for off-line model-       *                                                                              
# parameter reweighting at NLO+PS accuracy                             *                                                                              
#***********************************************************************                                                                              
  True	= store_rwgt_info ! Store info for reweighting in LHE file                                                                                     
#***********************************************************************                                                                              
# ickkw parameter:                                                     *                                                                              
#   0: No merging                                                      *                                                                              
#   3: FxFx Merging - WARNING! Applies merging only at the hard-event  *                                                                              
#      level. After showering an MLM-type merging should be applied as *                                                                              
#      well. See http://amcatnlo.cern.ch/FxFx_merging.htm for details. *                                                                              
#   4: UNLOPS merging (with pythia8 only). No interface from within    *                                                                              
#      MG5_aMC available, but available in Pythia8.                    *                                                                              
#  -1: NNLL+NLO jet-veto computation. See arxiv:1412.8408 [hep-ph].    *                                                                              
#***********************************************************************                                                                              
  3	= ickkw                                                                                                                                           
#***********************************************************************                                                                              
#                                                                                                                                                     
#***********************************************************************                                                                              
# BW cutoff (M+/-bwcutoff*Gamma). Determines which resonances are      *                                                                              
# written in the LHE event file                                        *                                                                              
#***********************************************************************                                                                              
  15.0	= bwcutoff                                                                                                                                     
#***********************************************************************                                                                              
# Cuts on the jets. Jet clustering is performed by FastJet.            *                                                                              
#  - When matching to a parton shower, these generation cuts should be *                                                                              
#    considerably softer than the analysis cuts.                       *                                                                              
#  - More specific cuts can be specified in SubProcesses/cuts.f        *                                                                              
#***********************************************************************                                                                              
  1.0	= jetalgo ! FastJet jet algorithm (1=kT, 0=C/A, -1=anti-kT)                                                                                     
  1.0	= jetradius ! The radius parameter for the jet algorithm                                                                                        
  10.0	= ptj ! Min jet transverse momentum                                                                                                            
  -1.0	= etaj ! Max jet abs(pseudo-rap) (a value .lt.0 means no cut)                                                                                  
#***********************************************************************                                                                              
# Cuts on the charged leptons (e+, e-, mu+, mu-, tau+ and tau-)        *                                                                              
# More specific cuts can be specified in SubProcesses/cuts.f           *                                                                              
#***********************************************************************                                                                              
  0.0	= ptl ! Min lepton transverse momentum                                                                                                          
  -1.0	= etal ! Max lepton abs(pseudo-rap) (a value .lt.0 means no cut)                                                                               
  0.0	= drll ! Min distance between opposite sign lepton pairs                                                                                        
  0.0	= drll_sf ! Min distance between opp. sign same-flavor lepton pairs                                                                             
  0.0	= mll ! Min inv. mass of all opposite sign lepton pairs                                                                                         
  30.0	= mll_sf ! Min inv. mass of all opp. sign same-flavor lepton pairs                                                                             
#***********************************************************************                                                                              
# Photon-isolation cuts, according to hep-ph/9801442. When ptgmin=0,   *                                                                              
# all the other parameters are ignored.                                *                                                                              
# More specific cuts can be specified in SubProcesses/cuts.f           *                                                                              
#***********************************************************************                                                                              
  80.0	= ptgmin ! Min photon transverse momentum                                                                                                      
  2.6	= etagamma ! Max photon abs(pseudo-rap)                                                                                                         
  0.05	= r0gamma ! Radius of isolation code                                                                                                           
  1.0	= xn ! n parameter of eq.(3.4) in hep-ph/9801442                                                                                                
  1.0	= epsgamma ! epsilon_gamma parameter of eq.(3.4) in hep-ph/9801442                                                                              
  True	= isoem ! isolate photons from EM energy (photons and leptons)                                                                                 
#***********************************************************************                                                                              
# For aMCfast+APPLGRID use in PDF fitting (http://amcfast.hepforge.org)*                                                                              
#***********************************************************************                                                                              
  0	= iappl ! aMCfast switch (0=OFF, 1=prepare grids, 2=fill grids)                                                                                   
#***********************************************************************                                                                              
#*********************************************************************                                                                                
#  Additional parameter                                                                                                                               
#*********************************************************************                                                                                
  292201	= pdf_set_min # hidden parameter                                                                                                             
  292302	= pdf_set_max # hidden parameter                                                                                                             
  5	= maxjetflavor # hidden parameter
]]>
</MGRunCard>
<slha>
######################################################################                                                                                
## PARAM_CARD AUTOMATICALY GENERATED BY MG5                       ####                                                                                
######################################################################                                                                                
###################################                                                                                                                   
## INFORMATION FOR DIM6                                                                                                                               
###################################                                                                                                                   
BLOCK DIM6 #                                                                                                                                          
      1 2.500000e+01 # cwwwl2                                                                                                                         
      2 0.000000e+00 # cwl2                                                                                                                           
      3 0.000000e+00 # cbl2                                                                                                                           
      4 0.000000e+00 # cpwwwl2                                                                                                                        
      5 0.000000e+00 # cpwl2                                                                                                                          
###################################                                                                                                                   
## INFORMATION FOR LOOP                                                                                                                               
###################################                                                                                                                   
BLOCK LOOP #                                                                                                                                          
      1 9.118800e+01 # mu_r                                                                                                                           
###################################                                                                                                                   
## INFORMATION FOR MASS                                                                                                                               
###################################                                                                                                                   
BLOCK MASS #                                                                                                                                          
      6 1.730000e+02 # mt                                                                                                                             
      23 9.118800e+01 # mz                                                                                                                            
      25 1.250000e+02 # mh                                                                                                                            
      1 0.000000e+00 # d : 0.0                                                                                                                        
      2 0.000000e+00 # u : 0.0                                                                                                                        
      3 0.000000e+00 # s : 0.0                                                                                                                        
      4 0.000000e+00 # c : 0.0                                                                                                                        
      5 0.000000e+00 # b : 0.0                                                                                                                        
      11 0.000000e+00 # e- : 0.0                                                                                                                      
      12 0.000000e+00 # ve : 0.0                                                                                                                      
      13 0.000000e+00 # mu- : 0.0                                                                                                                     
      14 0.000000e+00 # vm : 0.0                                                                                                                      
      15 0.000000e+00 # ta- : 0.0                                                                                                                     
      16 0.000000e+00 # vt : 0.0                                                                                                                      
      21 0.000000e+00 # g : 0.0                                                                                                                       
      22 0.000000e+00 # a : 0.0                                                                                                                       
      24 8.041900e+01 # w+ : cmath.sqrt(mz__exp__2/2. + cmath.sqrt(mz__exp__4/4. - (aew*cmath.pi*mz__exp__2)/(gf*sqrt__2)))                           
      9000002 9.118800e+01 # ghz : mz                                                                                                                 
      9000003 8.041900e+01 # ghwp : mw                                                                                                                
      9000004 8.041900e+01 # ghwm : mw                                                                                                                
###################################                                                                                                                   
## INFORMATION FOR SMINPUTS                                                                                                                           
###################################                                                                                                                   
BLOCK SMINPUTS #                                                                                                                                      
      1 1.325070e+02 # aewm1                                                                                                                          
      2 1.166390e-05 # gf                                                                                                                             
      3 1.180000e-01 # as                                                                                                                             
###################################                                                                                                                   
## INFORMATION FOR YUKAWA                                                                                                                             
###################################                                                                                                                   
BLOCK YUKAWA #                                                                                                                                        
      6 1.730000e+02 # ymt                                                                                                                            
      15 1.777000e+00 # ymtau                                                                                                                         
###################################                                                                                                                   
## INFORMATION FOR DECAY                                                                                                                              
###################################                                                                                                                   
DECAY 6 1.491500e+00 # wt                                                                                                                             
DECAY 23 2.441404e+00 # wz                                                                                                                            
DECAY 24 2.047600e+00 # ww                                                                                                                            
DECAY 25 6.382339e-03 # wh                                                                                                                            
DECAY 1 0.000000e+00 # d : 0.0                                                                                                                        
DECAY 2 0.000000e+00 # u : 0.0                                                                                                                        
DECAY 3 0.000000e+00 # s : 0.0                                                                                                                        
DECAY 4 0.000000e+00 # c : 0.0                                                                                                                        
DECAY 5 0.000000e+00 # b : 0.0                                                                                                                        
DECAY 11 0.000000e+00 # e- : 0.0                                                                                                                      
DECAY 12 0.000000e+00 # ve : 0.0                                                                                                                      
DECAY 13 0.000000e+00 # mu- : 0.0                                                                                                                     
DECAY 14 0.000000e+00 # vm : 0.0                                                                                                                      
DECAY 15 0.000000e+00 # ta- : 0.0                                                                                                                     
DECAY 16 0.000000e+00 # vt : 0.0                                                                                                                      
DECAY 21 0.000000e+00 # g : 0.0                                                                                                                       
DECAY 22 0.000000e+00 # a : 0.0
</slha>
<montecarlomasses>
1   0.000000E+00
       2   0.000000E+00
       3   0.000000E+00
       4   0.000000E+00
       5   0.000000E+00
      11   0.000000E+00
      13   0.000000E+00
      15   0.000000E+00
      21   0.000000E+00
</montecarlomasses>
<initrwgt>
<![CDATA[
<weightgroup name='scale_variation   -1' combine='envelope'>
      <weight id='1001'> dyn=  -1 muR=0.10000E+01 muF=0.10000E+01 </weight>
      <weight id='1002'> dyn=  -1 muR=0.20000E+01 muF=0.10000E+01 </weight>
      <weight id='1003'> dyn=  -1 muR=0.50000E+00 muF=0.10000E+01 </weight>
      <weight id='1004'> dyn=  -1 muR=0.10000E+01 muF=0.20000E+01 </weight>
      <weight id='1005'> dyn=  -1 muR=0.20000E+01 muF=0.20000E+01 </weight>
      <weight id='1006'> dyn=  -1 muR=0.50000E+00 muF=0.20000E+01 </weight>
      <weight id='1007'> dyn=  -1 muR=0.10000E+01 muF=0.50000E+00 </weight>
      <weight id='1008'> dyn=  -1 muR=0.20000E+01 muF=0.50000E+00 </weight>
      <weight id='1009'> dyn=  -1 muR=0.50000E+00 muF=0.50000E+00 </weight>
    </weightgroup>
    <weightgroup name='PDF_variation NNPDF30_nlo_nf_5_pdfas' combine='unknown'>
      <weight id='1010'> PDF=  292200 NNPDF30_nlo_nf_5_pdfas </weight>
      <weight id='1011'> PDF=  292201 NNPDF30_nlo_nf_5_pdfas </weight>
      <weight id='1012'> PDF=  292202 NNPDF30_nlo_nf_5_pdfas </weight>
      <weight id='1013'> PDF=  292203 NNPDF30_nlo_nf_5_pdfas </weight>
      <weight id='1014'> PDF=  292204 NNPDF30_nlo_nf_5_pdfas </weight>
      <weight id='1015'> PDF=  292205 NNPDF30_nlo_nf_5_pdfas </weight>
      <weight id='1016'> PDF=  292206 NNPDF30_nlo_nf_5_pdfas </weight>
      <weight id='1017'> PDF=  292207 NNPDF30_nlo_nf_5_pdfas </weight>
      <weight id='1018'> PDF=  292208 NNPDF30_nlo_nf_5_pdfas </weight>
      <weight id='1019'> PDF=  292209 NNPDF30_nlo_nf_5_pdfas </weight>
      <weight id='1020'> PDF=  292210 NNPDF30_nlo_nf_5_pdfas </weight>
      <weight id='1021'> PDF=  292211 NNPDF30_nlo_nf_5_pdfas </weight>
      <weight id='1022'> PDF=  292212 NNPDF30_nlo_nf_5_pdfas </weight>
      <weight id='1023'> PDF=  292213 NNPDF30_nlo_nf_5_pdfas </weight>
      <weight id='1024'> PDF=  292214 NNPDF30_nlo_nf_5_pdfas </weight>
      <weight id='1025'> PDF=  292215 NNPDF30_nlo_nf_5_pdfas </weight>
      <weight id='1026'> PDF=  292216 NNPDF30_nlo_nf_5_pdfas </weight>
      <weight id='1027'> PDF=  292217 NNPDF30_nlo_nf_5_pdfas </weight>
      <weight id='1028'> PDF=  292218 NNPDF30_nlo_nf_5_pdfas </weight>
      <weight id='1029'> PDF=  292219 NNPDF30_nlo_nf_5_pdfas </weight>
      <weight id='1030'> PDF=  292220 NNPDF30_nlo_nf_5_pdfas </weight>
      <weight id='1031'> PDF=  292221 NNPDF30_nlo_nf_5_pdfas </weight>
      <weight id='1032'> PDF=  292222 NNPDF30_nlo_nf_5_pdfas </weight>
      <weight id='1033'> PDF=  292223 NNPDF30_nlo_nf_5_pdfas </weight>
      <weight id='1034'> PDF=  292224 NNPDF30_nlo_nf_5_pdfas </weight>
      <weight id='1035'> PDF=  292225 NNPDF30_nlo_nf_5_pdfas </weight>
      <weight id='1036'> PDF=  292226 NNPDF30_nlo_nf_5_pdfas </weight>
      <weight id='1037'> PDF=  292227 NNPDF30_nlo_nf_5_pdfas </weight>
      <weight id='1038'> PDF=  292228 NNPDF30_nlo_nf_5_pdfas </weight>
      <weight id='1039'> PDF=  292229 NNPDF30_nlo_nf_5_pdfas </weight>
      <weight id='1040'> PDF=  292230 NNPDF30_nlo_nf_5_pdfas </weight>
      <weight id='1041'> PDF=  292231 NNPDF30_nlo_nf_5_pdfas </weight>
      <weight id='1042'> PDF=  292232 NNPDF30_nlo_nf_5_pdfas </weight>
      <weight id='1043'> PDF=  292233 NNPDF30_nlo_nf_5_pdfas </weight>
      <weight id='1044'> PDF=  292234 NNPDF30_nlo_nf_5_pdfas </weight>
      <weight id='1045'> PDF=  292235 NNPDF30_nlo_nf_5_pdfas </weight>
      <weight id='1046'> PDF=  292236 NNPDF30_nlo_nf_5_pdfas </weight>
      <weight id='1047'> PDF=  292237 NNPDF30_nlo_nf_5_pdfas </weight>
      <weight id='1048'> PDF=  292238 NNPDF30_nlo_nf_5_pdfas </weight>
      <weight id='1049'> PDF=  292239 NNPDF30_nlo_nf_5_pdfas </weight>
      <weight id='1050'> PDF=  292240 NNPDF30_nlo_nf_5_pdfas </weight>
      <weight id='1051'> PDF=  292241 NNPDF30_nlo_nf_5_pdfas </weight>
      <weight id='1052'> PDF=  292242 NNPDF30_nlo_nf_5_pdfas </weight>
      <weight id='1053'> PDF=  292243 NNPDF30_nlo_nf_5_pdfas </weight>
      <weight id='1054'> PDF=  292244 NNPDF30_nlo_nf_5_pdfas </weight>
      <weight id='1055'> PDF=  292245 NNPDF30_nlo_nf_5_pdfas </weight>
      <weight id='1056'> PDF=  292246 NNPDF30_nlo_nf_5_pdfas </weight>
      <weight id='1057'> PDF=  292247 NNPDF30_nlo_nf_5_pdfas </weight>
      <weight id='1058'> PDF=  292248 NNPDF30_nlo_nf_5_pdfas </weight>
      <weight id='1059'> PDF=  292249 NNPDF30_nlo_nf_5_pdfas </weight>
      <weight id='1060'> PDF=  292250 NNPDF30_nlo_nf_5_pdfas </weight>
      <weight id='1061'> PDF=  292251 NNPDF30_nlo_nf_5_pdfas </weight>
      <weight id='1062'> PDF=  292252 NNPDF30_nlo_nf_5_pdfas </weight>
      <weight id='1063'> PDF=  292253 NNPDF30_nlo_nf_5_pdfas </weight>
      <weight id='1064'> PDF=  292254 NNPDF30_nlo_nf_5_pdfas </weight>
      <weight id='1065'> PDF=  292255 NNPDF30_nlo_nf_5_pdfas </weight>
      <weight id='1066'> PDF=  292256 NNPDF30_nlo_nf_5_pdfas </weight>
      <weight id='1067'> PDF=  292257 NNPDF30_nlo_nf_5_pdfas </weight>
      <weight id='1068'> PDF=  292258 NNPDF30_nlo_nf_5_pdfas </weight>
      <weight id='1069'> PDF=  292259 NNPDF30_nlo_nf_5_pdfas </weight>
      <weight id='1070'> PDF=  292260 NNPDF30_nlo_nf_5_pdfas </weight>
      <weight id='1071'> PDF=  292261 NNPDF30_nlo_nf_5_pdfas </weight>
      <weight id='1072'> PDF=  292262 NNPDF30_nlo_nf_5_pdfas </weight>
      <weight id='1073'> PDF=  292263 NNPDF30_nlo_nf_5_pdfas </weight>
      <weight id='1074'> PDF=  292264 NNPDF30_nlo_nf_5_pdfas </weight>
      <weight id='1075'> PDF=  292265 NNPDF30_nlo_nf_5_pdfas </weight>
      <weight id='1076'> PDF=  292266 NNPDF30_nlo_nf_5_pdfas </weight>
      <weight id='1077'> PDF=  292267 NNPDF30_nlo_nf_5_pdfas </weight>
      <weight id='1078'> PDF=  292268 NNPDF30_nlo_nf_5_pdfas </weight>
      <weight id='1079'> PDF=  292269 NNPDF30_nlo_nf_5_pdfas </weight>
      <weight id='1080'> PDF=  292270 NNPDF30_nlo_nf_5_pdfas </weight>
      <weight id='1081'> PDF=  292271 NNPDF30_nlo_nf_5_pdfas </weight>
      <weight id='1082'> PDF=  292272 NNPDF30_nlo_nf_5_pdfas </weight>
      <weight id='1083'> PDF=  292273 NNPDF30_nlo_nf_5_pdfas </weight>
      <weight id='1084'> PDF=  292274 NNPDF30_nlo_nf_5_pdfas </weight>
      <weight id='1085'> PDF=  292275 NNPDF30_nlo_nf_5_pdfas </weight>
      <weight id='1086'> PDF=  292276 NNPDF30_nlo_nf_5_pdfas </weight>
      <weight id='1087'> PDF=  292277 NNPDF30_nlo_nf_5_pdfas </weight>
      <weight id='1088'> PDF=  292278 NNPDF30_nlo_nf_5_pdfas </weight>
      <weight id='1089'> PDF=  292279 NNPDF30_nlo_nf_5_pdfas </weight>
      <weight id='1090'> PDF=  292280 NNPDF30_nlo_nf_5_pdfas </weight>
      <weight id='1091'> PDF=  292281 NNPDF30_nlo_nf_5_pdfas </weight>
      <weight id='1092'> PDF=  292282 NNPDF30_nlo_nf_5_pdfas </weight>
      <weight id='1093'> PDF=  292283 NNPDF30_nlo_nf_5_pdfas </weight>
      <weight id='1094'> PDF=  292284 NNPDF30_nlo_nf_5_pdfas </weight>
      <weight id='1095'> PDF=  292285 NNPDF30_nlo_nf_5_pdfas </weight>
      <weight id='1096'> PDF=  292286 NNPDF30_nlo_nf_5_pdfas </weight>
      <weight id='1097'> PDF=  292287 NNPDF30_nlo_nf_5_pdfas </weight>
      <weight id='1098'> PDF=  292288 NNPDF30_nlo_nf_5_pdfas </weight>
      <weight id='1099'> PDF=  292289 NNPDF30_nlo_nf_5_pdfas </weight>
      <weight id='1100'> PDF=  292290 NNPDF30_nlo_nf_5_pdfas </weight>
      <weight id='1101'> PDF=  292291 NNPDF30_nlo_nf_5_pdfas </weight>
      <weight id='1102'> PDF=  292292 NNPDF30_nlo_nf_5_pdfas </weight>
      <weight id='1103'> PDF=  292293 NNPDF30_nlo_nf_5_pdfas </weight>
      <weight id='1104'> PDF=  292294 NNPDF30_nlo_nf_5_pdfas </weight>
      <weight id='1105'> PDF=  292295 NNPDF30_nlo_nf_5_pdfas </weight>
      <weight id='1106'> PDF=  292296 NNPDF30_nlo_nf_5_pdfas </weight>
      <weight id='1107'> PDF=  292297 NNPDF30_nlo_nf_5_pdfas </weight>
      <weight id='1108'> PDF=  292298 NNPDF30_nlo_nf_5_pdfas </weight>
      <weight id='1109'> PDF=  292299 NNPDF30_nlo_nf_5_pdfas </weight>
      <weight id='1110'> PDF=  292300 NNPDF30_nlo_nf_5_pdfas </weight>
      <weight id='1111'> PDF=  292301 NNPDF30_nlo_nf_5_pdfas </weight>
      <weight id='1112'> PDF=  292302 NNPDF30_nlo_nf_5_pdfas </weight>
    </weightgroup>

<weightgroup name='mg_reweighting'>
<weight id='rwgt_1'>set param_card dim6 1 10.0 # orig: 25.0
</weight>
<weight id='rwgt_2'>set param_card dim6 1 -10.0 # orig: 25.0
</weight>
<weight id='rwgt_3'>set param_card dim6 1 20.0 # orig: 25.0
</weight>
<weight id='rwgt_4'>set param_card dim6 1 -20.0 # orig: 25.0
</weight>
<weight id='rwgt_5'>set param_card dim6 1 -30.0 # orig: 25.0
</weight>
<weight id='rwgt_6'>set param_card dim6 1 30.0 # orig: 25.0
</weight>
<weight id='rwgt_7'>set param_card dim6 1 0.0 # orig: 25.0
set param_card dim6 2 80.0 # orig: 0.0
</weight>
<weight id='rwgt_8'>set param_card dim6 1 0.0 # orig: 25.0
set param_card dim6 2 -80.0 # orig: 0.0
</weight>
<weight id='rwgt_9'>set param_card dim6 1 0.0 # orig: 25.0
set param_card dim6 2 160.0 # orig: 0.0
</weight>
<weight id='rwgt_10'>set param_card dim6 1 0.0 # orig: 25.0
set param_card dim6 2 -160.0 # orig: 0.0
</weight>
<weight id='rwgt_11'>set param_card dim6 1 0.0 # orig: 25.0
set param_card dim6 2 240.0 # orig: 0.0
</weight>
<weight id='rwgt_12'>set param_card dim6 1 0.0 # orig: 25.0
set param_card dim6 2 -240.0 # orig: 0.0
</weight>
<weight id='rwgt_13'>set param_card dim6 1 0.0 # orig: 25.0
set param_card dim6 3 80.0 # orig: 0.0
</weight>
<weight id='rwgt_14'>set param_card dim6 1 0.0 # orig: 25.0
set param_card dim6 3 -80.0 # orig: 0.0
</weight>
<weight id='rwgt_15'>set param_card dim6 1 0.0 # orig: 25.0
set param_card dim6 3 160.0 # orig: 0.0
</weight>
<weight id='rwgt_16'>set param_card dim6 1 0.0 # orig: 25.0
set param_card dim6 3 -160.0 # orig: 0.0
</weight>
<weight id='rwgt_17'>set param_card dim6 1 0.0 # orig: 25.0
set param_card dim6 3 240.0 # orig: 0.0
</weight>
<weight id='rwgt_18'>set param_card dim6 1 0.0 # orig: 25.0
set param_card dim6 3 -240.0 # orig: 0.0
</weight>
<weight id='rwgt_19'>set param_card dim6 1 0.0 # orig: 25.0
set param_card dim6 4 4.0 # orig: 0.0
</weight>
<weight id='rwgt_20'>set param_card dim6 1 0.0 # orig: 25.0
set param_card dim6 4 -4.0 # orig: 0.0
</weight>
<weight id='rwgt_21'>set param_card dim6 1 0.0 # orig: 25.0
set param_card dim6 4 8.0 # orig: 0.0
</weight>
<weight id='rwgt_22'>set param_card dim6 1 0.0 # orig: 25.0
set param_card dim6 4 -8.0 # orig: 0.0
</weight>
<weight id='rwgt_23'>set param_card dim6 1 0.0 # orig: 25.0
set param_card dim6 4 12.0 # orig: 0.0
</weight>
<weight id='rwgt_24'>set param_card dim6 1 0.0 # orig: 25.0
set param_card dim6 4 -12.0 # orig: 0.0
</weight>
<weight id='rwgt_25'>set param_card dim6 1 0.0 # orig: 25.0
set param_card dim6 5 40.0 # orig: 0.0
</weight>
<weight id='rwgt_26'>set param_card dim6 1 0.0 # orig: 25.0
set param_card dim6 5 -40.0 # orig: 0.0
</weight>
<weight id='rwgt_27'>set param_card dim6 1 0.0 # orig: 25.0
set param_card dim6 5 80.0 # orig: 0.0
</weight>
<weight id='rwgt_28'>set param_card dim6 1 0.0 # orig: 25.0
set param_card dim6 5 -80.0 # orig: 0.0
</weight>
<weight id='rwgt_29'>set param_card dim6 1 0.0 # orig: 25.0
set param_card dim6 5 120.0 # orig: 0.0
</weight>
<weight id='rwgt_30'>set param_card dim6 1 0.0 # orig: 25.0
set param_card dim6 5 -120.0 # orig: 0.0
</weight>
<weight id='rwgt_31'>set param_card dim6 1 10.0 # orig: 25.0
set param_card dim6 2 80.0 # orig: 0.0
set param_card dim6 3 80.0 # orig: 0.0
</weight>
<weight id='rwgt_32'>set param_card dim6 1 10.0 # orig: 25.0
set param_card dim6 2 80.0 # orig: 0.0
set param_card dim6 3 -80.0 # orig: 0.0
</weight>
<weight id='rwgt_33'>set param_card dim6 1 10.0 # orig: 25.0
set param_card dim6 2 -80.0 # orig: 0.0
set param_card dim6 3 80.0 # orig: 0.0
</weight>
<weight id='rwgt_34'>set param_card dim6 1 10.0 # orig: 25.0
set param_card dim6 2 -80.0 # orig: 0.0
set param_card dim6 3 -80.0 # orig: 0.0
</weight>
<weight id='rwgt_35'>set param_card dim6 1 10.0 # orig: 25.0
set param_card dim6 2 80.0 # orig: 0.0
set param_card dim6 3 160.0 # orig: 0.0
</weight>
<weight id='rwgt_36'>set param_card dim6 1 10.0 # orig: 25.0
set param_card dim6 2 80.0 # orig: 0.0
set param_card dim6 3 -160.0 # orig: 0.0
</weight>
<weight id='rwgt_37'>set param_card dim6 1 10.0 # orig: 25.0
set param_card dim6 2 -80.0 # orig: 0.0
set param_card dim6 3 160.0 # orig: 0.0
</weight>
<weight id='rwgt_38'>set param_card dim6 1 10.0 # orig: 25.0
set param_card dim6 2 -80.0 # orig: 0.0
set param_card dim6 3 -160.0 # orig: 0.0
</weight>
<weight id='rwgt_39'>set param_card dim6 1 10.0 # orig: 25.0
set param_card dim6 2 80.0 # orig: 0.0
set param_card dim6 3 240.0 # orig: 0.0
</weight>
<weight id='rwgt_40'>set param_card dim6 1 10.0 # orig: 25.0
set param_card dim6 2 80.0 # orig: 0.0
set param_card dim6 3 -240.0 # orig: 0.0
</weight>
<weight id='rwgt_41'>set param_card dim6 1 10.0 # orig: 25.0
set param_card dim6 2 -80.0 # orig: 0.0
set param_card dim6 3 240.0 # orig: 0.0
</weight>
<weight id='rwgt_42'>set param_card dim6 1 10.0 # orig: 25.0
set param_card dim6 2 -80.0 # orig: 0.0
set param_card dim6 3 -240.0 # orig: 0.0
</weight>
<weight id='rwgt_43'>set param_card dim6 1 10.0 # orig: 25.0
set param_card dim6 2 80.0 # orig: 0.0
</weight>
<weight id='rwgt_44'>set param_card dim6 1 10.0 # orig: 25.0
set param_card dim6 2 -80.0 # orig: 0.0
</weight>
<weight id='rwgt_45'>set param_card dim6 1 10.0 # orig: 25.0
set param_card dim6 2 160.0 # orig: 0.0
set param_card dim6 3 80.0 # orig: 0.0
</weight>
<weight id='rwgt_46'>set param_card dim6 1 10.0 # orig: 25.0
set param_card dim6 2 160.0 # orig: 0.0
set param_card dim6 3 -80.0 # orig: 0.0
</weight>
<weight id='rwgt_47'>set param_card dim6 1 10.0 # orig: 25.0
set param_card dim6 2 -160.0 # orig: 0.0
set param_card dim6 3 80.0 # orig: 0.0
</weight>
<weight id='rwgt_48'>set param_card dim6 1 10.0 # orig: 25.0
set param_card dim6 2 -160.0 # orig: 0.0
set param_card dim6 3 -80.0 # orig: 0.0
</weight>
<weight id='rwgt_49'>set param_card dim6 1 10.0 # orig: 25.0
set param_card dim6 2 160.0 # orig: 0.0
set param_card dim6 3 160.0 # orig: 0.0
</weight>
<weight id='rwgt_50'>set param_card dim6 1 10.0 # orig: 25.0
set param_card dim6 2 160.0 # orig: 0.0
set param_card dim6 3 -160.0 # orig: 0.0
</weight>
<weight id='rwgt_51'>set param_card dim6 1 10.0 # orig: 25.0
set param_card dim6 2 -160.0 # orig: 0.0
set param_card dim6 3 160.0 # orig: 0.0
</weight>
<weight id='rwgt_52'>set param_card dim6 1 10.0 # orig: 25.0
set param_card dim6 2 -160.0 # orig: 0.0
set param_card dim6 3 -160.0 # orig: 0.0
</weight>
<weight id='rwgt_53'>set param_card dim6 1 10.0 # orig: 25.0
set param_card dim6 2 160.0 # orig: 0.0
set param_card dim6 3 240.0 # orig: 0.0
</weight>
<weight id='rwgt_54'>set param_card dim6 1 10.0 # orig: 25.0
set param_card dim6 2 160.0 # orig: 0.0
set param_card dim6 3 -240.0 # orig: 0.0
</weight>
<weight id='rwgt_55'>set param_card dim6 1 10.0 # orig: 25.0
set param_card dim6 2 -160.0 # orig: 0.0
set param_card dim6 3 240.0 # orig: 0.0
</weight>
<weight id='rwgt_56'>set param_card dim6 1 10.0 # orig: 25.0
set param_card dim6 2 -160.0 # orig: 0.0
set param_card dim6 3 -240.0 # orig: 0.0
</weight>
<weight id='rwgt_57'>set param_card dim6 1 10.0 # orig: 25.0
set param_card dim6 2 160.0 # orig: 0.0
</weight>
<weight id='rwgt_58'>set param_card dim6 1 10.0 # orig: 25.0
set param_card dim6 2 -160.0 # orig: 0.0
</weight>
<weight id='rwgt_59'>set param_card dim6 1 10.0 # orig: 25.0
set param_card dim6 2 240.0 # orig: 0.0
set param_card dim6 3 80.0 # orig: 0.0
</weight>
<weight id='rwgt_60'>set param_card dim6 1 10.0 # orig: 25.0
set param_card dim6 2 240.0 # orig: 0.0
set param_card dim6 3 -80.0 # orig: 0.0
</weight>
<weight id='rwgt_61'>set param_card dim6 1 10.0 # orig: 25.0
set param_card dim6 2 -240.0 # orig: 0.0
set param_card dim6 3 80.0 # orig: 0.0
</weight>
<weight id='rwgt_62'>set param_card dim6 1 10.0 # orig: 25.0
set param_card dim6 2 -240.0 # orig: 0.0
set param_card dim6 3 -80.0 # orig: 0.0
</weight>
<weight id='rwgt_63'>set param_card dim6 1 10.0 # orig: 25.0
set param_card dim6 2 240.0 # orig: 0.0
set param_card dim6 3 160.0 # orig: 0.0
</weight>
<weight id='rwgt_64'>set param_card dim6 1 10.0 # orig: 25.0
set param_card dim6 2 240.0 # orig: 0.0
set param_card dim6 3 -160.0 # orig: 0.0
</weight>
<weight id='rwgt_65'>set param_card dim6 1 10.0 # orig: 25.0
set param_card dim6 2 -240.0 # orig: 0.0
set param_card dim6 3 160.0 # orig: 0.0
</weight>
<weight id='rwgt_66'>set param_card dim6 1 10.0 # orig: 25.0
set param_card dim6 2 -240.0 # orig: 0.0
set param_card dim6 3 -160.0 # orig: 0.0
</weight>
<weight id='rwgt_67'>set param_card dim6 1 10.0 # orig: 25.0
set param_card dim6 2 240.0 # orig: 0.0
set param_card dim6 3 240.0 # orig: 0.0
</weight>
<weight id='rwgt_68'>set param_card dim6 1 10.0 # orig: 25.0
set param_card dim6 2 240.0 # orig: 0.0
set param_card dim6 3 -240.0 # orig: 0.0
</weight>
<weight id='rwgt_69'>set param_card dim6 1 10.0 # orig: 25.0
set param_card dim6 2 -240.0 # orig: 0.0
set param_card dim6 3 240.0 # orig: 0.0
</weight>
<weight id='rwgt_70'>set param_card dim6 1 10.0 # orig: 25.0
set param_card dim6 2 -240.0 # orig: 0.0
set param_card dim6 3 -240.0 # orig: 0.0
</weight>
<weight id='rwgt_71'>set param_card dim6 1 10.0 # orig: 25.0
set param_card dim6 2 240.0 # orig: 0.0
</weight>
<weight id='rwgt_72'>set param_card dim6 1 10.0 # orig: 25.0
set param_card dim6 2 -240.0 # orig: 0.0
</weight>
<weight id='rwgt_73'>set param_card dim6 1 10.0 # orig: 25.0
set param_card dim6 3 80.0 # orig: 0.0
</weight>
<weight id='rwgt_74'>set param_card dim6 1 10.0 # orig: 25.0
set param_card dim6 3 -80.0 # orig: 0.0
</weight>
<weight id='rwgt_75'>set param_card dim6 1 10.0 # orig: 25.0
set param_card dim6 3 160.0 # orig: 0.0
</weight>
<weight id='rwgt_76'>set param_card dim6 1 10.0 # orig: 25.0
set param_card dim6 3 -160.0 # orig: 0.0
</weight>
<weight id='rwgt_77'>set param_card dim6 1 10.0 # orig: 25.0
set param_card dim6 3 240.0 # orig: 0.0
</weight>
<weight id='rwgt_78'>set param_card dim6 1 10.0 # orig: 25.0
set param_card dim6 3 -240.0 # orig: 0.0
</weight>
<weight id='rwgt_79'>set param_card dim6 1 10.0 # orig: 25.0
</weight>
<weight id='rwgt_80'>set param_card dim6 1 -10.0 # orig: 25.0
set param_card dim6 2 80.0 # orig: 0.0
set param_card dim6 3 80.0 # orig: 0.0
</weight>
<weight id='rwgt_81'>set param_card dim6 1 -10.0 # orig: 25.0
set param_card dim6 2 80.0 # orig: 0.0
set param_card dim6 3 -80.0 # orig: 0.0
</weight>
<weight id='rwgt_82'>set param_card dim6 1 -10.0 # orig: 25.0
set param_card dim6 2 -80.0 # orig: 0.0
set param_card dim6 3 80.0 # orig: 0.0
</weight>
<weight id='rwgt_83'>set param_card dim6 1 -10.0 # orig: 25.0
set param_card dim6 2 -80.0 # orig: 0.0
set param_card dim6 3 -80.0 # orig: 0.0
</weight>
<weight id='rwgt_84'>set param_card dim6 1 -10.0 # orig: 25.0
set param_card dim6 2 80.0 # orig: 0.0
set param_card dim6 3 160.0 # orig: 0.0
</weight>
<weight id='rwgt_85'>set param_card dim6 1 -10.0 # orig: 25.0
set param_card dim6 2 80.0 # orig: 0.0
set param_card dim6 3 -160.0 # orig: 0.0
</weight>
<weight id='rwgt_86'>set param_card dim6 1 -10.0 # orig: 25.0
set param_card dim6 2 -80.0 # orig: 0.0
set param_card dim6 3 160.0 # orig: 0.0
</weight>
<weight id='rwgt_87'>set param_card dim6 1 -10.0 # orig: 25.0
set param_card dim6 2 -80.0 # orig: 0.0
set param_card dim6 3 -160.0 # orig: 0.0
</weight>
<weight id='rwgt_88'>set param_card dim6 1 -10.0 # orig: 25.0
set param_card dim6 2 80.0 # orig: 0.0
set param_card dim6 3 240.0 # orig: 0.0
</weight>
<weight id='rwgt_89'>set param_card dim6 1 -10.0 # orig: 25.0
set param_card dim6 2 80.0 # orig: 0.0
set param_card dim6 3 -240.0 # orig: 0.0
</weight>
<weight id='rwgt_90'>set param_card dim6 1 -10.0 # orig: 25.0
set param_card dim6 2 -80.0 # orig: 0.0
set param_card dim6 3 240.0 # orig: 0.0
</weight>
<weight id='rwgt_91'>set param_card dim6 1 -10.0 # orig: 25.0
set param_card dim6 2 -80.0 # orig: 0.0
set param_card dim6 3 -240.0 # orig: 0.0
</weight>
<weight id='rwgt_92'>set param_card dim6 1 -10.0 # orig: 25.0
set param_card dim6 2 80.0 # orig: 0.0
</weight>
<weight id='rwgt_93'>set param_card dim6 1 -10.0 # orig: 25.0
set param_card dim6 2 -80.0 # orig: 0.0
</weight>
<weight id='rwgt_94'>set param_card dim6 1 -10.0 # orig: 25.0
set param_card dim6 2 160.0 # orig: 0.0
set param_card dim6 3 80.0 # orig: 0.0
</weight>
<weight id='rwgt_95'>set param_card dim6 1 -10.0 # orig: 25.0
set param_card dim6 2 160.0 # orig: 0.0
set param_card dim6 3 -80.0 # orig: 0.0
</weight>
<weight id='rwgt_96'>set param_card dim6 1 -10.0 # orig: 25.0
set param_card dim6 2 -160.0 # orig: 0.0
set param_card dim6 3 80.0 # orig: 0.0
</weight>
<weight id='rwgt_97'>set param_card dim6 1 -10.0 # orig: 25.0
set param_card dim6 2 -160.0 # orig: 0.0
set param_card dim6 3 -80.0 # orig: 0.0
</weight>
<weight id='rwgt_98'>set param_card dim6 1 -10.0 # orig: 25.0
set param_card dim6 2 160.0 # orig: 0.0
set param_card dim6 3 160.0 # orig: 0.0
</weight>
<weight id='rwgt_99'>set param_card dim6 1 -10.0 # orig: 25.0
set param_card dim6 2 160.0 # orig: 0.0
set param_card dim6 3 -160.0 # orig: 0.0
</weight>
<weight id='rwgt_100'>set param_card dim6 1 -10.0 # orig: 25.0
set param_card dim6 2 -160.0 # orig: 0.0
set param_card dim6 3 160.0 # orig: 0.0
</weight>
<weight id='rwgt_101'>set param_card dim6 1 -10.0 # orig: 25.0
set param_card dim6 2 -160.0 # orig: 0.0
set param_card dim6 3 -160.0 # orig: 0.0
</weight>
<weight id='rwgt_102'>set param_card dim6 1 -10.0 # orig: 25.0
set param_card dim6 2 160.0 # orig: 0.0
set param_card dim6 3 240.0 # orig: 0.0
</weight>
<weight id='rwgt_103'>set param_card dim6 1 -10.0 # orig: 25.0
set param_card dim6 2 160.0 # orig: 0.0
set param_card dim6 3 -240.0 # orig: 0.0
</weight>
<weight id='rwgt_104'>set param_card dim6 1 -10.0 # orig: 25.0
set param_card dim6 2 -160.0 # orig: 0.0
set param_card dim6 3 240.0 # orig: 0.0
</weight>
<weight id='rwgt_105'>set param_card dim6 1 -10.0 # orig: 25.0
set param_card dim6 2 -160.0 # orig: 0.0
set param_card dim6 3 -240.0 # orig: 0.0
</weight>
<weight id='rwgt_106'>set param_card dim6 1 -10.0 # orig: 25.0
set param_card dim6 2 160.0 # orig: 0.0
</weight>
<weight id='rwgt_107'>set param_card dim6 1 -10.0 # orig: 25.0
set param_card dim6 2 -160.0 # orig: 0.0
</weight>
<weight id='rwgt_108'>set param_card dim6 1 -10.0 # orig: 25.0
set param_card dim6 2 240.0 # orig: 0.0
set param_card dim6 3 80.0 # orig: 0.0
</weight>
<weight id='rwgt_109'>set param_card dim6 1 -10.0 # orig: 25.0
set param_card dim6 2 240.0 # orig: 0.0
set param_card dim6 3 -80.0 # orig: 0.0
</weight>
<weight id='rwgt_110'>set param_card dim6 1 -10.0 # orig: 25.0
set param_card dim6 2 -240.0 # orig: 0.0
set param_card dim6 3 80.0 # orig: 0.0
</weight>
<weight id='rwgt_111'>set param_card dim6 1 -10.0 # orig: 25.0
set param_card dim6 2 -240.0 # orig: 0.0
set param_card dim6 3 -80.0 # orig: 0.0
</weight>
<weight id='rwgt_112'>set param_card dim6 1 -10.0 # orig: 25.0
set param_card dim6 2 240.0 # orig: 0.0
set param_card dim6 3 160.0 # orig: 0.0
</weight>
<weight id='rwgt_113'>set param_card dim6 1 -10.0 # orig: 25.0
set param_card dim6 2 240.0 # orig: 0.0
set param_card dim6 3 -160.0 # orig: 0.0
</weight>
<weight id='rwgt_114'>set param_card dim6 1 -10.0 # orig: 25.0
set param_card dim6 2 -240.0 # orig: 0.0
set param_card dim6 3 160.0 # orig: 0.0
</weight>
<weight id='rwgt_115'>set param_card dim6 1 -10.0 # orig: 25.0
set param_card dim6 2 -240.0 # orig: 0.0
set param_card dim6 3 -160.0 # orig: 0.0
</weight>
<weight id='rwgt_116'>set param_card dim6 1 -10.0 # orig: 25.0
set param_card dim6 2 240.0 # orig: 0.0
set param_card dim6 3 240.0 # orig: 0.0
</weight>
<weight id='rwgt_117'>set param_card dim6 1 -10.0 # orig: 25.0
set param_card dim6 2 240.0 # orig: 0.0
set param_card dim6 3 -240.0 # orig: 0.0
</weight>
<weight id='rwgt_118'>set param_card dim6 1 -10.0 # orig: 25.0
set param_card dim6 2 -240.0 # orig: 0.0
set param_card dim6 3 240.0 # orig: 0.0
</weight>
<weight id='rwgt_119'>set param_card dim6 1 -10.0 # orig: 25.0
set param_card dim6 2 -240.0 # orig: 0.0
set param_card dim6 3 -240.0 # orig: 0.0
</weight>
<weight id='rwgt_120'>set param_card dim6 1 -10.0 # orig: 25.0
set param_card dim6 2 240.0 # orig: 0.0
</weight>
<weight id='rwgt_121'>set param_card dim6 1 -10.0 # orig: 25.0
set param_card dim6 2 -240.0 # orig: 0.0
</weight>
<weight id='rwgt_122'>set param_card dim6 1 -10.0 # orig: 25.0
set param_card dim6 3 80.0 # orig: 0.0
</weight>
<weight id='rwgt_123'>set param_card dim6 1 -10.0 # orig: 25.0
set param_card dim6 3 -80.0 # orig: 0.0
</weight>
<weight id='rwgt_124'>set param_card dim6 1 -10.0 # orig: 25.0
set param_card dim6 3 160.0 # orig: 0.0
</weight>
<weight id='rwgt_125'>set param_card dim6 1 -10.0 # orig: 25.0
set param_card dim6 3 -160.0 # orig: 0.0
</weight>
<weight id='rwgt_126'>set param_card dim6 1 -10.0 # orig: 25.0
set param_card dim6 3 240.0 # orig: 0.0
</weight>
<weight id='rwgt_127'>set param_card dim6 1 -10.0 # orig: 25.0
set param_card dim6 3 -240.0 # orig: 0.0
</weight>
<weight id='rwgt_128'>set param_card dim6 1 -10.0 # orig: 25.0
</weight>
<weight id='rwgt_129'>set param_card dim6 1 20.0 # orig: 25.0
set param_card dim6 2 80.0 # orig: 0.0
set param_card dim6 3 80.0 # orig: 0.0
</weight>
<weight id='rwgt_130'>set param_card dim6 1 20.0 # orig: 25.0
set param_card dim6 2 80.0 # orig: 0.0
set param_card dim6 3 -80.0 # orig: 0.0
</weight>
<weight id='rwgt_131'>set param_card dim6 1 20.0 # orig: 25.0
set param_card dim6 2 -80.0 # orig: 0.0
set param_card dim6 3 80.0 # orig: 0.0
</weight>
<weight id='rwgt_132'>set param_card dim6 1 20.0 # orig: 25.0
set param_card dim6 2 -80.0 # orig: 0.0
set param_card dim6 3 -80.0 # orig: 0.0
</weight>
<weight id='rwgt_133'>set param_card dim6 1 20.0 # orig: 25.0
set param_card dim6 2 80.0 # orig: 0.0
set param_card dim6 3 160.0 # orig: 0.0
</weight>
<weight id='rwgt_134'>set param_card dim6 1 20.0 # orig: 25.0
set param_card dim6 2 80.0 # orig: 0.0
set param_card dim6 3 -160.0 # orig: 0.0
</weight>
<weight id='rwgt_135'>set param_card dim6 1 20.0 # orig: 25.0
set param_card dim6 2 -80.0 # orig: 0.0
set param_card dim6 3 160.0 # orig: 0.0
</weight>
<weight id='rwgt_136'>set param_card dim6 1 20.0 # orig: 25.0
set param_card dim6 2 -80.0 # orig: 0.0
set param_card dim6 3 -160.0 # orig: 0.0
</weight>
<weight id='rwgt_137'>set param_card dim6 1 20.0 # orig: 25.0
set param_card dim6 2 80.0 # orig: 0.0
set param_card dim6 3 240.0 # orig: 0.0
</weight>
<weight id='rwgt_138'>set param_card dim6 1 20.0 # orig: 25.0
set param_card dim6 2 80.0 # orig: 0.0
set param_card dim6 3 -240.0 # orig: 0.0
</weight>
<weight id='rwgt_139'>set param_card dim6 1 20.0 # orig: 25.0
set param_card dim6 2 -80.0 # orig: 0.0
set param_card dim6 3 240.0 # orig: 0.0
</weight>
<weight id='rwgt_140'>set param_card dim6 1 20.0 # orig: 25.0
set param_card dim6 2 -80.0 # orig: 0.0
set param_card dim6 3 -240.0 # orig: 0.0
</weight>
<weight id='rwgt_141'>set param_card dim6 1 20.0 # orig: 25.0
set param_card dim6 2 80.0 # orig: 0.0
</weight>
<weight id='rwgt_142'>set param_card dim6 1 20.0 # orig: 25.0
set param_card dim6 2 -80.0 # orig: 0.0
</weight>
<weight id='rwgt_143'>set param_card dim6 1 20.0 # orig: 25.0
set param_card dim6 2 160.0 # orig: 0.0
set param_card dim6 3 80.0 # orig: 0.0
</weight>
<weight id='rwgt_144'>set param_card dim6 1 20.0 # orig: 25.0
set param_card dim6 2 160.0 # orig: 0.0
set param_card dim6 3 -80.0 # orig: 0.0
</weight>
<weight id='rwgt_145'>set param_card dim6 1 20.0 # orig: 25.0
set param_card dim6 2 -160.0 # orig: 0.0
set param_card dim6 3 80.0 # orig: 0.0
</weight>
<weight id='rwgt_146'>set param_card dim6 1 20.0 # orig: 25.0
set param_card dim6 2 -160.0 # orig: 0.0
set param_card dim6 3 -80.0 # orig: 0.0
</weight>
<weight id='rwgt_147'>set param_card dim6 1 20.0 # orig: 25.0
set param_card dim6 2 160.0 # orig: 0.0
set param_card dim6 3 160.0 # orig: 0.0
</weight>
<weight id='rwgt_148'>set param_card dim6 1 20.0 # orig: 25.0
set param_card dim6 2 160.0 # orig: 0.0
set param_card dim6 3 -160.0 # orig: 0.0
</weight>
<weight id='rwgt_149'>set param_card dim6 1 20.0 # orig: 25.0
set param_card dim6 2 -160.0 # orig: 0.0
set param_card dim6 3 160.0 # orig: 0.0
</weight>
<weight id='rwgt_150'>set param_card dim6 1 20.0 # orig: 25.0
set param_card dim6 2 -160.0 # orig: 0.0
set param_card dim6 3 -160.0 # orig: 0.0
</weight>
<weight id='rwgt_151'>set param_card dim6 1 20.0 # orig: 25.0
set param_card dim6 2 160.0 # orig: 0.0
set param_card dim6 3 240.0 # orig: 0.0
</weight>
<weight id='rwgt_152'>set param_card dim6 1 20.0 # orig: 25.0
set param_card dim6 2 160.0 # orig: 0.0
set param_card dim6 3 -240.0 # orig: 0.0
</weight>
<weight id='rwgt_153'>set param_card dim6 1 20.0 # orig: 25.0
set param_card dim6 2 -160.0 # orig: 0.0
set param_card dim6 3 240.0 # orig: 0.0
</weight>
<weight id='rwgt_154'>set param_card dim6 1 20.0 # orig: 25.0
set param_card dim6 2 -160.0 # orig: 0.0
set param_card dim6 3 -240.0 # orig: 0.0
</weight>
<weight id='rwgt_155'>set param_card dim6 1 20.0 # orig: 25.0
set param_card dim6 2 160.0 # orig: 0.0
</weight>
<weight id='rwgt_156'>set param_card dim6 1 20.0 # orig: 25.0
set param_card dim6 2 -160.0 # orig: 0.0
</weight>
<weight id='rwgt_157'>set param_card dim6 1 20.0 # orig: 25.0
set param_card dim6 2 240.0 # orig: 0.0
set param_card dim6 3 80.0 # orig: 0.0
</weight>
<weight id='rwgt_158'>set param_card dim6 1 20.0 # orig: 25.0
set param_card dim6 2 240.0 # orig: 0.0
set param_card dim6 3 -80.0 # orig: 0.0
</weight>
<weight id='rwgt_159'>set param_card dim6 1 20.0 # orig: 25.0
set param_card dim6 2 -240.0 # orig: 0.0
set param_card dim6 3 80.0 # orig: 0.0
</weight>
<weight id='rwgt_160'>set param_card dim6 1 20.0 # orig: 25.0
set param_card dim6 2 -240.0 # orig: 0.0
set param_card dim6 3 -80.0 # orig: 0.0
</weight>
<weight id='rwgt_161'>set param_card dim6 1 20.0 # orig: 25.0
set param_card dim6 2 240.0 # orig: 0.0
set param_card dim6 3 160.0 # orig: 0.0
</weight>
<weight id='rwgt_162'>set param_card dim6 1 20.0 # orig: 25.0
set param_card dim6 2 240.0 # orig: 0.0
set param_card dim6 3 -160.0 # orig: 0.0
</weight>
<weight id='rwgt_163'>set param_card dim6 1 20.0 # orig: 25.0
set param_card dim6 2 -240.0 # orig: 0.0
set param_card dim6 3 160.0 # orig: 0.0
</weight>
<weight id='rwgt_164'>set param_card dim6 1 20.0 # orig: 25.0
set param_card dim6 2 -240.0 # orig: 0.0
set param_card dim6 3 -160.0 # orig: 0.0
</weight>
<weight id='rwgt_165'>set param_card dim6 1 20.0 # orig: 25.0
set param_card dim6 2 240.0 # orig: 0.0
set param_card dim6 3 240.0 # orig: 0.0
</weight>
<weight id='rwgt_166'>set param_card dim6 1 20.0 # orig: 25.0
set param_card dim6 2 240.0 # orig: 0.0
set param_card dim6 3 -240.0 # orig: 0.0
</weight>
<weight id='rwgt_167'>set param_card dim6 1 20.0 # orig: 25.0
set param_card dim6 2 -240.0 # orig: 0.0
set param_card dim6 3 240.0 # orig: 0.0
</weight>
<weight id='rwgt_168'>set param_card dim6 1 20.0 # orig: 25.0
set param_card dim6 2 -240.0 # orig: 0.0
set param_card dim6 3 -240.0 # orig: 0.0
</weight>
<weight id='rwgt_169'>set param_card dim6 1 20.0 # orig: 25.0
set param_card dim6 2 240.0 # orig: 0.0
</weight>
<weight id='rwgt_170'>set param_card dim6 1 20.0 # orig: 25.0
set param_card dim6 2 -240.0 # orig: 0.0
</weight>
<weight id='rwgt_171'>set param_card dim6 1 20.0 # orig: 25.0
set param_card dim6 3 80.0 # orig: 0.0
</weight>
<weight id='rwgt_172'>set param_card dim6 1 20.0 # orig: 25.0
set param_card dim6 3 -80.0 # orig: 0.0
</weight>
<weight id='rwgt_173'>set param_card dim6 1 20.0 # orig: 25.0
set param_card dim6 3 160.0 # orig: 0.0
</weight>
<weight id='rwgt_174'>set param_card dim6 1 20.0 # orig: 25.0
set param_card dim6 3 -160.0 # orig: 0.0
</weight>
<weight id='rwgt_175'>set param_card dim6 1 20.0 # orig: 25.0
set param_card dim6 3 240.0 # orig: 0.0
</weight>
<weight id='rwgt_176'>set param_card dim6 1 20.0 # orig: 25.0
set param_card dim6 3 -240.0 # orig: 0.0
</weight>
<weight id='rwgt_177'>set param_card dim6 1 20.0 # orig: 25.0
</weight>
<weight id='rwgt_178'>set param_card dim6 1 -20.0 # orig: 25.0
set param_card dim6 2 80.0 # orig: 0.0
set param_card dim6 3 80.0 # orig: 0.0
</weight>
<weight id='rwgt_179'>set param_card dim6 1 -20.0 # orig: 25.0
set param_card dim6 2 80.0 # orig: 0.0
set param_card dim6 3 -80.0 # orig: 0.0
</weight>
<weight id='rwgt_180'>set param_card dim6 1 -20.0 # orig: 25.0
set param_card dim6 2 -80.0 # orig: 0.0
set param_card dim6 3 80.0 # orig: 0.0
</weight>
<weight id='rwgt_181'>set param_card dim6 1 -20.0 # orig: 25.0
set param_card dim6 2 -80.0 # orig: 0.0
set param_card dim6 3 -80.0 # orig: 0.0
</weight>
<weight id='rwgt_182'>set param_card dim6 1 -20.0 # orig: 25.0
set param_card dim6 2 80.0 # orig: 0.0
set param_card dim6 3 160.0 # orig: 0.0
</weight>
<weight id='rwgt_183'>set param_card dim6 1 -20.0 # orig: 25.0
set param_card dim6 2 80.0 # orig: 0.0
set param_card dim6 3 -160.0 # orig: 0.0
</weight>
<weight id='rwgt_184'>set param_card dim6 1 -20.0 # orig: 25.0
set param_card dim6 2 -80.0 # orig: 0.0
set param_card dim6 3 160.0 # orig: 0.0
</weight>
<weight id='rwgt_185'>set param_card dim6 1 -20.0 # orig: 25.0
set param_card dim6 2 -80.0 # orig: 0.0
set param_card dim6 3 -160.0 # orig: 0.0
</weight>
<weight id='rwgt_186'>set param_card dim6 1 -20.0 # orig: 25.0
set param_card dim6 2 80.0 # orig: 0.0
set param_card dim6 3 240.0 # orig: 0.0
</weight>
<weight id='rwgt_187'>set param_card dim6 1 -20.0 # orig: 25.0
set param_card dim6 2 80.0 # orig: 0.0
set param_card dim6 3 -240.0 # orig: 0.0
</weight>
<weight id='rwgt_188'>set param_card dim6 1 -20.0 # orig: 25.0
set param_card dim6 2 -80.0 # orig: 0.0
set param_card dim6 3 240.0 # orig: 0.0
</weight>
<weight id='rwgt_189'>set param_card dim6 1 -20.0 # orig: 25.0
set param_card dim6 2 -80.0 # orig: 0.0
set param_card dim6 3 -240.0 # orig: 0.0
</weight>
<weight id='rwgt_190'>set param_card dim6 1 -20.0 # orig: 25.0
set param_card dim6 2 80.0 # orig: 0.0
</weight>
<weight id='rwgt_191'>set param_card dim6 1 -20.0 # orig: 25.0
set param_card dim6 2 -80.0 # orig: 0.0
</weight>
<weight id='rwgt_192'>set param_card dim6 1 -20.0 # orig: 25.0
set param_card dim6 2 160.0 # orig: 0.0
set param_card dim6 3 80.0 # orig: 0.0
</weight>
<weight id='rwgt_193'>set param_card dim6 1 -20.0 # orig: 25.0
set param_card dim6 2 160.0 # orig: 0.0
set param_card dim6 3 -80.0 # orig: 0.0
</weight>
<weight id='rwgt_194'>set param_card dim6 1 -20.0 # orig: 25.0
set param_card dim6 2 -160.0 # orig: 0.0
set param_card dim6 3 80.0 # orig: 0.0
</weight>
<weight id='rwgt_195'>set param_card dim6 1 -20.0 # orig: 25.0
set param_card dim6 2 -160.0 # orig: 0.0
set param_card dim6 3 -80.0 # orig: 0.0
</weight>
<weight id='rwgt_196'>set param_card dim6 1 -20.0 # orig: 25.0
set param_card dim6 2 160.0 # orig: 0.0
set param_card dim6 3 160.0 # orig: 0.0
</weight>
<weight id='rwgt_197'>set param_card dim6 1 -20.0 # orig: 25.0
set param_card dim6 2 160.0 # orig: 0.0
set param_card dim6 3 -160.0 # orig: 0.0
</weight>
<weight id='rwgt_198'>set param_card dim6 1 -20.0 # orig: 25.0
set param_card dim6 2 -160.0 # orig: 0.0
set param_card dim6 3 160.0 # orig: 0.0
</weight>
<weight id='rwgt_199'>set param_card dim6 1 -20.0 # orig: 25.0
set param_card dim6 2 -160.0 # orig: 0.0
set param_card dim6 3 -160.0 # orig: 0.0
</weight>
<weight id='rwgt_200'>set param_card dim6 1 -20.0 # orig: 25.0
set param_card dim6 2 160.0 # orig: 0.0
set param_card dim6 3 240.0 # orig: 0.0
</weight>
<weight id='rwgt_201'>set param_card dim6 1 -20.0 # orig: 25.0
set param_card dim6 2 160.0 # orig: 0.0
set param_card dim6 3 -240.0 # orig: 0.0
</weight>
<weight id='rwgt_202'>set param_card dim6 1 -20.0 # orig: 25.0
set param_card dim6 2 -160.0 # orig: 0.0
set param_card dim6 3 240.0 # orig: 0.0
</weight>
<weight id='rwgt_203'>set param_card dim6 1 -20.0 # orig: 25.0
set param_card dim6 2 -160.0 # orig: 0.0
set param_card dim6 3 -240.0 # orig: 0.0
</weight>
<weight id='rwgt_204'>set param_card dim6 1 -20.0 # orig: 25.0
set param_card dim6 2 160.0 # orig: 0.0
</weight>
<weight id='rwgt_205'>set param_card dim6 1 -20.0 # orig: 25.0
set param_card dim6 2 -160.0 # orig: 0.0
</weight>
<weight id='rwgt_206'>set param_card dim6 1 -20.0 # orig: 25.0
set param_card dim6 2 240.0 # orig: 0.0
set param_card dim6 3 80.0 # orig: 0.0
</weight>
<weight id='rwgt_207'>set param_card dim6 1 -20.0 # orig: 25.0
set param_card dim6 2 240.0 # orig: 0.0
set param_card dim6 3 -80.0 # orig: 0.0
</weight>
<weight id='rwgt_208'>set param_card dim6 1 -20.0 # orig: 25.0
set param_card dim6 2 -240.0 # orig: 0.0
set param_card dim6 3 80.0 # orig: 0.0
</weight>
<weight id='rwgt_209'>set param_card dim6 1 -20.0 # orig: 25.0
set param_card dim6 2 -240.0 # orig: 0.0
set param_card dim6 3 -80.0 # orig: 0.0
</weight>
<weight id='rwgt_210'>set param_card dim6 1 -20.0 # orig: 25.0
set param_card dim6 2 240.0 # orig: 0.0
set param_card dim6 3 160.0 # orig: 0.0
</weight>
<weight id='rwgt_211'>set param_card dim6 1 -20.0 # orig: 25.0
set param_card dim6 2 240.0 # orig: 0.0
set param_card dim6 3 -160.0 # orig: 0.0
</weight>
<weight id='rwgt_212'>set param_card dim6 1 -20.0 # orig: 25.0
set param_card dim6 2 -240.0 # orig: 0.0
set param_card dim6 3 160.0 # orig: 0.0
</weight>
<weight id='rwgt_213'>set param_card dim6 1 -20.0 # orig: 25.0
set param_card dim6 2 -240.0 # orig: 0.0
set param_card dim6 3 -160.0 # orig: 0.0
</weight>
<weight id='rwgt_214'>set param_card dim6 1 -20.0 # orig: 25.0
set param_card dim6 2 240.0 # orig: 0.0
set param_card dim6 3 240.0 # orig: 0.0
</weight>
<weight id='rwgt_215'>set param_card dim6 1 -20.0 # orig: 25.0
set param_card dim6 2 240.0 # orig: 0.0
set param_card dim6 3 -240.0 # orig: 0.0
</weight>
<weight id='rwgt_216'>set param_card dim6 1 -20.0 # orig: 25.0
set param_card dim6 2 -240.0 # orig: 0.0
set param_card dim6 3 240.0 # orig: 0.0
</weight>
<weight id='rwgt_217'>set param_card dim6 1 -20.0 # orig: 25.0
set param_card dim6 2 -240.0 # orig: 0.0
set param_card dim6 3 -240.0 # orig: 0.0
</weight>
<weight id='rwgt_218'>set param_card dim6 1 -20.0 # orig: 25.0
set param_card dim6 2 240.0 # orig: 0.0
</weight>
<weight id='rwgt_219'>set param_card dim6 1 -20.0 # orig: 25.0
set param_card dim6 2 -240.0 # orig: 0.0
</weight>
<weight id='rwgt_220'>set param_card dim6 1 -20.0 # orig: 25.0
set param_card dim6 3 80.0 # orig: 0.0
</weight>
<weight id='rwgt_221'>set param_card dim6 1 -20.0 # orig: 25.0
set param_card dim6 3 -80.0 # orig: 0.0
</weight>
<weight id='rwgt_222'>set param_card dim6 1 -20.0 # orig: 25.0
set param_card dim6 3 160.0 # orig: 0.0
</weight>
<weight id='rwgt_223'>set param_card dim6 1 -20.0 # orig: 25.0
set param_card dim6 3 -160.0 # orig: 0.0
</weight>
<weight id='rwgt_224'>set param_card dim6 1 -20.0 # orig: 25.0
set param_card dim6 3 240.0 # orig: 0.0
</weight>
<weight id='rwgt_225'>set param_card dim6 1 -20.0 # orig: 25.0
set param_card dim6 3 -240.0 # orig: 0.0
</weight>
<weight id='rwgt_226'>set param_card dim6 1 -20.0 # orig: 25.0
</weight>
<weight id='rwgt_227'>set param_card dim6 1 30.0 # orig: 25.0
set param_card dim6 2 80.0 # orig: 0.0
set param_card dim6 3 80.0 # orig: 0.0
</weight>
<weight id='rwgt_228'>set param_card dim6 1 30.0 # orig: 25.0
set param_card dim6 2 80.0 # orig: 0.0
set param_card dim6 3 -80.0 # orig: 0.0
</weight>
<weight id='rwgt_229'>set param_card dim6 1 30.0 # orig: 25.0
set param_card dim6 2 -80.0 # orig: 0.0
set param_card dim6 3 80.0 # orig: 0.0
</weight>
<weight id='rwgt_230'>set param_card dim6 1 30.0 # orig: 25.0
set param_card dim6 2 -80.0 # orig: 0.0
set param_card dim6 3 -80.0 # orig: 0.0
</weight>
<weight id='rwgt_231'>set param_card dim6 1 30.0 # orig: 25.0
set param_card dim6 2 80.0 # orig: 0.0
set param_card dim6 3 160.0 # orig: 0.0
</weight>
<weight id='rwgt_232'>set param_card dim6 1 30.0 # orig: 25.0
set param_card dim6 2 80.0 # orig: 0.0
set param_card dim6 3 -160.0 # orig: 0.0
</weight>
<weight id='rwgt_233'>set param_card dim6 1 30.0 # orig: 25.0
set param_card dim6 2 -80.0 # orig: 0.0
set param_card dim6 3 160.0 # orig: 0.0
</weight>
<weight id='rwgt_234'>set param_card dim6 1 30.0 # orig: 25.0
set param_card dim6 2 -80.0 # orig: 0.0
set param_card dim6 3 -160.0 # orig: 0.0
</weight>
<weight id='rwgt_235'>set param_card dim6 1 30.0 # orig: 25.0
set param_card dim6 2 80.0 # orig: 0.0
set param_card dim6 3 240.0 # orig: 0.0
</weight>
<weight id='rwgt_236'>set param_card dim6 1 30.0 # orig: 25.0
set param_card dim6 2 80.0 # orig: 0.0
set param_card dim6 3 -240.0 # orig: 0.0
</weight>
<weight id='rwgt_237'>set param_card dim6 1 30.0 # orig: 25.0
set param_card dim6 2 -80.0 # orig: 0.0
set param_card dim6 3 240.0 # orig: 0.0
</weight>
<weight id='rwgt_238'>set param_card dim6 1 30.0 # orig: 25.0
set param_card dim6 2 -80.0 # orig: 0.0
set param_card dim6 3 -240.0 # orig: 0.0
</weight>
<weight id='rwgt_239'>set param_card dim6 1 30.0 # orig: 25.0
set param_card dim6 2 80.0 # orig: 0.0
</weight>
<weight id='rwgt_240'>set param_card dim6 1 30.0 # orig: 25.0
set param_card dim6 2 -80.0 # orig: 0.0
</weight>
<weight id='rwgt_241'>set param_card dim6 1 30.0 # orig: 25.0
set param_card dim6 2 160.0 # orig: 0.0
set param_card dim6 3 80.0 # orig: 0.0
</weight>
<weight id='rwgt_242'>set param_card dim6 1 30.0 # orig: 25.0
set param_card dim6 2 160.0 # orig: 0.0
set param_card dim6 3 -80.0 # orig: 0.0
</weight>
<weight id='rwgt_243'>set param_card dim6 1 30.0 # orig: 25.0
set param_card dim6 2 -160.0 # orig: 0.0
set param_card dim6 3 80.0 # orig: 0.0
</weight>
<weight id='rwgt_244'>set param_card dim6 1 30.0 # orig: 25.0
set param_card dim6 2 -160.0 # orig: 0.0
set param_card dim6 3 -80.0 # orig: 0.0
</weight>
<weight id='rwgt_245'>set param_card dim6 1 30.0 # orig: 25.0
set param_card dim6 2 160.0 # orig: 0.0
set param_card dim6 3 160.0 # orig: 0.0
</weight>
<weight id='rwgt_246'>set param_card dim6 1 30.0 # orig: 25.0
set param_card dim6 2 160.0 # orig: 0.0
set param_card dim6 3 -160.0 # orig: 0.0
</weight>
<weight id='rwgt_247'>set param_card dim6 1 30.0 # orig: 25.0
set param_card dim6 2 -160.0 # orig: 0.0
set param_card dim6 3 160.0 # orig: 0.0
</weight>
<weight id='rwgt_248'>set param_card dim6 1 30.0 # orig: 25.0
set param_card dim6 2 -160.0 # orig: 0.0
set param_card dim6 3 -160.0 # orig: 0.0
</weight>
<weight id='rwgt_249'>set param_card dim6 1 30.0 # orig: 25.0
set param_card dim6 2 160.0 # orig: 0.0
set param_card dim6 3 240.0 # orig: 0.0
</weight>
<weight id='rwgt_250'>set param_card dim6 1 30.0 # orig: 25.0
set param_card dim6 2 160.0 # orig: 0.0
set param_card dim6 3 -240.0 # orig: 0.0
</weight>
<weight id='rwgt_251'>set param_card dim6 1 30.0 # orig: 25.0
set param_card dim6 2 -160.0 # orig: 0.0
set param_card dim6 3 240.0 # orig: 0.0
</weight>
<weight id='rwgt_252'>set param_card dim6 1 30.0 # orig: 25.0
set param_card dim6 2 -160.0 # orig: 0.0
set param_card dim6 3 -240.0 # orig: 0.0
</weight>
<weight id='rwgt_253'>set param_card dim6 1 30.0 # orig: 25.0
set param_card dim6 2 160.0 # orig: 0.0
</weight>
<weight id='rwgt_254'>set param_card dim6 1 30.0 # orig: 25.0
set param_card dim6 2 -160.0 # orig: 0.0
</weight>
<weight id='rwgt_255'>set param_card dim6 1 30.0 # orig: 25.0
set param_card dim6 2 240.0 # orig: 0.0
set param_card dim6 3 80.0 # orig: 0.0
</weight>
<weight id='rwgt_256'>set param_card dim6 1 30.0 # orig: 25.0
set param_card dim6 2 240.0 # orig: 0.0
set param_card dim6 3 -80.0 # orig: 0.0
</weight>
<weight id='rwgt_257'>set param_card dim6 1 30.0 # orig: 25.0
set param_card dim6 2 -240.0 # orig: 0.0
set param_card dim6 3 80.0 # orig: 0.0
</weight>
<weight id='rwgt_258'>set param_card dim6 1 30.0 # orig: 25.0
set param_card dim6 2 -240.0 # orig: 0.0
set param_card dim6 3 -80.0 # orig: 0.0
</weight>
<weight id='rwgt_259'>set param_card dim6 1 30.0 # orig: 25.0
set param_card dim6 2 240.0 # orig: 0.0
set param_card dim6 3 160.0 # orig: 0.0
</weight>
<weight id='rwgt_260'>set param_card dim6 1 30.0 # orig: 25.0
set param_card dim6 2 240.0 # orig: 0.0
set param_card dim6 3 -160.0 # orig: 0.0
</weight>
<weight id='rwgt_261'>set param_card dim6 1 30.0 # orig: 25.0
set param_card dim6 2 -240.0 # orig: 0.0
set param_card dim6 3 160.0 # orig: 0.0
</weight>
<weight id='rwgt_262'>set param_card dim6 1 30.0 # orig: 25.0
set param_card dim6 2 -240.0 # orig: 0.0
set param_card dim6 3 -160.0 # orig: 0.0
</weight>
<weight id='rwgt_263'>set param_card dim6 1 30.0 # orig: 25.0
set param_card dim6 2 240.0 # orig: 0.0
set param_card dim6 3 240.0 # orig: 0.0
</weight>
<weight id='rwgt_264'>set param_card dim6 1 30.0 # orig: 25.0
set param_card dim6 2 240.0 # orig: 0.0
set param_card dim6 3 -240.0 # orig: 0.0
</weight>
<weight id='rwgt_265'>set param_card dim6 1 30.0 # orig: 25.0
set param_card dim6 2 -240.0 # orig: 0.0
set param_card dim6 3 240.0 # orig: 0.0
</weight>
<weight id='rwgt_266'>set param_card dim6 1 30.0 # orig: 25.0
set param_card dim6 2 -240.0 # orig: 0.0
set param_card dim6 3 -240.0 # orig: 0.0
</weight>
<weight id='rwgt_267'>set param_card dim6 1 30.0 # orig: 25.0
set param_card dim6 2 240.0 # orig: 0.0
</weight>
<weight id='rwgt_268'>set param_card dim6 1 30.0 # orig: 25.0
set param_card dim6 2 -240.0 # orig: 0.0
</weight>
<weight id='rwgt_269'>set param_card dim6 1 30.0 # orig: 25.0
set param_card dim6 3 80.0 # orig: 0.0
</weight>
<weight id='rwgt_270'>set param_card dim6 1 30.0 # orig: 25.0
set param_card dim6 3 -80.0 # orig: 0.0
</weight>
<weight id='rwgt_271'>set param_card dim6 1 30.0 # orig: 25.0
set param_card dim6 3 160.0 # orig: 0.0
</weight>
<weight id='rwgt_272'>set param_card dim6 1 30.0 # orig: 25.0
set param_card dim6 3 -160.0 # orig: 0.0
</weight>
<weight id='rwgt_273'>set param_card dim6 1 30.0 # orig: 25.0
set param_card dim6 3 240.0 # orig: 0.0
</weight>
<weight id='rwgt_274'>set param_card dim6 1 30.0 # orig: 25.0
set param_card dim6 3 -240.0 # orig: 0.0
</weight>
<weight id='rwgt_275'>set param_card dim6 1 30.0 # orig: 25.0
</weight>
<weight id='rwgt_276'>set param_card dim6 1 -30.0 # orig: 25.0
set param_card dim6 2 80.0 # orig: 0.0
set param_card dim6 3 80.0 # orig: 0.0
</weight>
<weight id='rwgt_277'>set param_card dim6 1 -30.0 # orig: 25.0
set param_card dim6 2 80.0 # orig: 0.0
set param_card dim6 3 -80.0 # orig: 0.0
</weight>
<weight id='rwgt_278'>set param_card dim6 1 -30.0 # orig: 25.0
set param_card dim6 2 -80.0 # orig: 0.0
set param_card dim6 3 80.0 # orig: 0.0
</weight>
<weight id='rwgt_279'>set param_card dim6 1 -30.0 # orig: 25.0
set param_card dim6 2 -80.0 # orig: 0.0
set param_card dim6 3 -80.0 # orig: 0.0
</weight>
<weight id='rwgt_280'>set param_card dim6 1 -30.0 # orig: 25.0
set param_card dim6 2 80.0 # orig: 0.0
set param_card dim6 3 160.0 # orig: 0.0
</weight>
<weight id='rwgt_281'>set param_card dim6 1 -30.0 # orig: 25.0
set param_card dim6 2 80.0 # orig: 0.0
set param_card dim6 3 -160.0 # orig: 0.0
</weight>
<weight id='rwgt_282'>set param_card dim6 1 -30.0 # orig: 25.0
set param_card dim6 2 -80.0 # orig: 0.0
set param_card dim6 3 160.0 # orig: 0.0
</weight>
<weight id='rwgt_283'>set param_card dim6 1 -30.0 # orig: 25.0
set param_card dim6 2 -80.0 # orig: 0.0
set param_card dim6 3 -160.0 # orig: 0.0
</weight>
<weight id='rwgt_284'>set param_card dim6 1 -30.0 # orig: 25.0
set param_card dim6 2 80.0 # orig: 0.0
set param_card dim6 3 240.0 # orig: 0.0
</weight>
<weight id='rwgt_285'>set param_card dim6 1 -30.0 # orig: 25.0
set param_card dim6 2 80.0 # orig: 0.0
set param_card dim6 3 -240.0 # orig: 0.0
</weight>
<weight id='rwgt_286'>set param_card dim6 1 -30.0 # orig: 25.0
set param_card dim6 2 -80.0 # orig: 0.0
set param_card dim6 3 240.0 # orig: 0.0
</weight>
<weight id='rwgt_287'>set param_card dim6 1 -30.0 # orig: 25.0
set param_card dim6 2 -80.0 # orig: 0.0
set param_card dim6 3 -240.0 # orig: 0.0
</weight>
<weight id='rwgt_288'>set param_card dim6 1 -30.0 # orig: 25.0
set param_card dim6 2 80.0 # orig: 0.0
</weight>
<weight id='rwgt_289'>set param_card dim6 1 -30.0 # orig: 25.0
set param_card dim6 2 -80.0 # orig: 0.0
</weight>
<weight id='rwgt_290'>set param_card dim6 1 -30.0 # orig: 25.0
set param_card dim6 2 160.0 # orig: 0.0
set param_card dim6 3 80.0 # orig: 0.0
</weight>
<weight id='rwgt_291'>set param_card dim6 1 -30.0 # orig: 25.0
set param_card dim6 2 160.0 # orig: 0.0
set param_card dim6 3 -80.0 # orig: 0.0
</weight>
<weight id='rwgt_292'>set param_card dim6 1 -30.0 # orig: 25.0
set param_card dim6 2 -160.0 # orig: 0.0
set param_card dim6 3 80.0 # orig: 0.0
</weight>
<weight id='rwgt_293'>set param_card dim6 1 -30.0 # orig: 25.0
set param_card dim6 2 -160.0 # orig: 0.0
set param_card dim6 3 -80.0 # orig: 0.0
</weight>
<weight id='rwgt_294'>set param_card dim6 1 -30.0 # orig: 25.0
set param_card dim6 2 160.0 # orig: 0.0
set param_card dim6 3 160.0 # orig: 0.0
</weight>
<weight id='rwgt_295'>set param_card dim6 1 -30.0 # orig: 25.0
set param_card dim6 2 160.0 # orig: 0.0
set param_card dim6 3 -160.0 # orig: 0.0
</weight>
<weight id='rwgt_296'>set param_card dim6 1 -30.0 # orig: 25.0
set param_card dim6 2 -160.0 # orig: 0.0
set param_card dim6 3 160.0 # orig: 0.0
</weight>
<weight id='rwgt_297'>set param_card dim6 1 -30.0 # orig: 25.0
set param_card dim6 2 -160.0 # orig: 0.0
set param_card dim6 3 -160.0 # orig: 0.0
</weight>
<weight id='rwgt_298'>set param_card dim6 1 -30.0 # orig: 25.0
set param_card dim6 2 160.0 # orig: 0.0
set param_card dim6 3 240.0 # orig: 0.0
</weight>
<weight id='rwgt_299'>set param_card dim6 1 -30.0 # orig: 25.0
set param_card dim6 2 160.0 # orig: 0.0
set param_card dim6 3 -240.0 # orig: 0.0
</weight>
<weight id='rwgt_300'>set param_card dim6 1 -30.0 # orig: 25.0
set param_card dim6 2 -160.0 # orig: 0.0
set param_card dim6 3 240.0 # orig: 0.0
</weight>
<weight id='rwgt_301'>set param_card dim6 1 -30.0 # orig: 25.0
set param_card dim6 2 -160.0 # orig: 0.0
set param_card dim6 3 -240.0 # orig: 0.0
</weight>
<weight id='rwgt_302'>set param_card dim6 1 -30.0 # orig: 25.0
set param_card dim6 2 160.0 # orig: 0.0
</weight>
<weight id='rwgt_303'>set param_card dim6 1 -30.0 # orig: 25.0
set param_card dim6 2 -160.0 # orig: 0.0
</weight>
<weight id='rwgt_304'>set param_card dim6 1 -30.0 # orig: 25.0
set param_card dim6 2 240.0 # orig: 0.0
set param_card dim6 3 80.0 # orig: 0.0
</weight>
<weight id='rwgt_305'>set param_card dim6 1 -30.0 # orig: 25.0
set param_card dim6 2 240.0 # orig: 0.0
set param_card dim6 3 -80.0 # orig: 0.0
</weight>
<weight id='rwgt_306'>set param_card dim6 1 -30.0 # orig: 25.0
set param_card dim6 2 -240.0 # orig: 0.0
set param_card dim6 3 80.0 # orig: 0.0
</weight>
<weight id='rwgt_307'>set param_card dim6 1 -30.0 # orig: 25.0
set param_card dim6 2 -240.0 # orig: 0.0
set param_card dim6 3 -80.0 # orig: 0.0
</weight>
<weight id='rwgt_308'>set param_card dim6 1 -30.0 # orig: 25.0
set param_card dim6 2 240.0 # orig: 0.0
set param_card dim6 3 160.0 # orig: 0.0
</weight>
<weight id='rwgt_309'>set param_card dim6 1 -30.0 # orig: 25.0
set param_card dim6 2 240.0 # orig: 0.0
set param_card dim6 3 -160.0 # orig: 0.0
</weight>
<weight id='rwgt_310'>set param_card dim6 1 -30.0 # orig: 25.0
set param_card dim6 2 -240.0 # orig: 0.0
set param_card dim6 3 160.0 # orig: 0.0
</weight>
<weight id='rwgt_311'>set param_card dim6 1 -30.0 # orig: 25.0
set param_card dim6 2 -240.0 # orig: 0.0
set param_card dim6 3 -160.0 # orig: 0.0
</weight>
<weight id='rwgt_312'>set param_card dim6 1 -30.0 # orig: 25.0
set param_card dim6 2 240.0 # orig: 0.0
set param_card dim6 3 240.0 # orig: 0.0
</weight>
<weight id='rwgt_313'>set param_card dim6 1 -30.0 # orig: 25.0
set param_card dim6 2 240.0 # orig: 0.0
set param_card dim6 3 -240.0 # orig: 0.0
</weight>
<weight id='rwgt_314'>set param_card dim6 1 -30.0 # orig: 25.0
set param_card dim6 2 -240.0 # orig: 0.0
set param_card dim6 3 240.0 # orig: 0.0
</weight>
<weight id='rwgt_315'>set param_card dim6 1 -30.0 # orig: 25.0
set param_card dim6 2 -240.0 # orig: 0.0
set param_card dim6 3 -240.0 # orig: 0.0
</weight>
<weight id='rwgt_316'>set param_card dim6 1 -30.0 # orig: 25.0
set param_card dim6 2 240.0 # orig: 0.0
</weight>
<weight id='rwgt_317'>set param_card dim6 1 -30.0 # orig: 25.0
set param_card dim6 2 -240.0 # orig: 0.0
</weight>
<weight id='rwgt_318'>set param_card dim6 1 -30.0 # orig: 25.0
set param_card dim6 3 80.0 # orig: 0.0
</weight>
<weight id='rwgt_319'>set param_card dim6 1 -30.0 # orig: 25.0
set param_card dim6 3 -80.0 # orig: 0.0
</weight>
<weight id='rwgt_320'>set param_card dim6 1 -30.0 # orig: 25.0
set param_card dim6 3 160.0 # orig: 0.0
</weight>
<weight id='rwgt_321'>set param_card dim6 1 -30.0 # orig: 25.0
set param_card dim6 3 -160.0 # orig: 0.0
</weight>
<weight id='rwgt_322'>set param_card dim6 1 -30.0 # orig: 25.0
set param_card dim6 3 240.0 # orig: 0.0
</weight>
<weight id='rwgt_323'>set param_card dim6 1 -30.0 # orig: 25.0
set param_card dim6 3 -240.0 # orig: 0.0
</weight>
<weight id='rwgt_324'>set param_card dim6 1 -30.0 # orig: 25.0
</weight>
<weight id='rwgt_325'>set param_card dim6 1 0.0 # orig: 25.0
set param_card dim6 2 80.0 # orig: 0.0
set param_card dim6 3 80.0 # orig: 0.0
</weight>
<weight id='rwgt_326'>set param_card dim6 1 0.0 # orig: 25.0
set param_card dim6 2 80.0 # orig: 0.0
set param_card dim6 3 -80.0 # orig: 0.0
</weight>
<weight id='rwgt_327'>set param_card dim6 1 0.0 # orig: 25.0
set param_card dim6 2 -80.0 # orig: 0.0
set param_card dim6 3 80.0 # orig: 0.0
</weight>
<weight id='rwgt_328'>set param_card dim6 1 0.0 # orig: 25.0
set param_card dim6 2 -80.0 # orig: 0.0
set param_card dim6 3 -80.0 # orig: 0.0
</weight>
<weight id='rwgt_329'>set param_card dim6 1 0.0 # orig: 25.0
set param_card dim6 2 80.0 # orig: 0.0
set param_card dim6 3 160.0 # orig: 0.0
</weight>
<weight id='rwgt_330'>set param_card dim6 1 0.0 # orig: 25.0
set param_card dim6 2 80.0 # orig: 0.0
set param_card dim6 3 -160.0 # orig: 0.0
</weight>
<weight id='rwgt_331'>set param_card dim6 1 0.0 # orig: 25.0
set param_card dim6 2 -80.0 # orig: 0.0
set param_card dim6 3 160.0 # orig: 0.0
</weight>
<weight id='rwgt_332'>set param_card dim6 1 0.0 # orig: 25.0
set param_card dim6 2 -80.0 # orig: 0.0
set param_card dim6 3 -160.0 # orig: 0.0
</weight>
<weight id='rwgt_333'>set param_card dim6 1 0.0 # orig: 25.0
set param_card dim6 2 80.0 # orig: 0.0
set param_card dim6 3 240.0 # orig: 0.0
</weight>
<weight id='rwgt_334'>set param_card dim6 1 0.0 # orig: 25.0
set param_card dim6 2 80.0 # orig: 0.0
set param_card dim6 3 -240.0 # orig: 0.0
</weight>
<weight id='rwgt_335'>set param_card dim6 1 0.0 # orig: 25.0
set param_card dim6 2 -80.0 # orig: 0.0
set param_card dim6 3 240.0 # orig: 0.0
</weight>
<weight id='rwgt_336'>set param_card dim6 1 0.0 # orig: 25.0
set param_card dim6 2 -80.0 # orig: 0.0
set param_card dim6 3 -240.0 # orig: 0.0
</weight>
<weight id='rwgt_337'>set param_card dim6 1 0.0 # orig: 25.0
set param_card dim6 2 80.0 # orig: 0.0
</weight>
<weight id='rwgt_338'>set param_card dim6 1 0.0 # orig: 25.0
set param_card dim6 2 -80.0 # orig: 0.0
</weight>
<weight id='rwgt_339'>set param_card dim6 1 0.0 # orig: 25.0
set param_card dim6 2 160.0 # orig: 0.0
set param_card dim6 3 80.0 # orig: 0.0
</weight>
<weight id='rwgt_340'>set param_card dim6 1 0.0 # orig: 25.0
set param_card dim6 2 160.0 # orig: 0.0
set param_card dim6 3 -80.0 # orig: 0.0
</weight>
<weight id='rwgt_341'>set param_card dim6 1 0.0 # orig: 25.0
set param_card dim6 2 -160.0 # orig: 0.0
set param_card dim6 3 80.0 # orig: 0.0
</weight>
<weight id='rwgt_342'>set param_card dim6 1 0.0 # orig: 25.0
set param_card dim6 2 -160.0 # orig: 0.0
set param_card dim6 3 -80.0 # orig: 0.0
</weight>
<weight id='rwgt_343'>set param_card dim6 1 0.0 # orig: 25.0
set param_card dim6 2 160.0 # orig: 0.0
set param_card dim6 3 160.0 # orig: 0.0
</weight>
<weight id='rwgt_344'>set param_card dim6 1 0.0 # orig: 25.0
set param_card dim6 2 160.0 # orig: 0.0
set param_card dim6 3 -160.0 # orig: 0.0
</weight>
<weight id='rwgt_345'>set param_card dim6 1 0.0 # orig: 25.0
set param_card dim6 2 -160.0 # orig: 0.0
set param_card dim6 3 160.0 # orig: 0.0
</weight>
<weight id='rwgt_346'>set param_card dim6 1 0.0 # orig: 25.0
set param_card dim6 2 -160.0 # orig: 0.0
set param_card dim6 3 -160.0 # orig: 0.0
</weight>
<weight id='rwgt_347'>set param_card dim6 1 0.0 # orig: 25.0
set param_card dim6 2 160.0 # orig: 0.0
set param_card dim6 3 240.0 # orig: 0.0
</weight>
<weight id='rwgt_348'>set param_card dim6 1 0.0 # orig: 25.0
set param_card dim6 2 160.0 # orig: 0.0
set param_card dim6 3 -240.0 # orig: 0.0
</weight>
<weight id='rwgt_349'>set param_card dim6 1 0.0 # orig: 25.0
set param_card dim6 2 -160.0 # orig: 0.0
set param_card dim6 3 240.0 # orig: 0.0
</weight>
<weight id='rwgt_350'>set param_card dim6 1 0.0 # orig: 25.0
set param_card dim6 2 -160.0 # orig: 0.0
set param_card dim6 3 -240.0 # orig: 0.0
</weight>
<weight id='rwgt_351'>set param_card dim6 1 0.0 # orig: 25.0
set param_card dim6 2 160.0 # orig: 0.0
</weight>
<weight id='rwgt_352'>set param_card dim6 1 0.0 # orig: 25.0
set param_card dim6 2 -160.0 # orig: 0.0
</weight>
<weight id='rwgt_353'>set param_card dim6 1 0.0 # orig: 25.0
set param_card dim6 2 240.0 # orig: 0.0
set param_card dim6 3 80.0 # orig: 0.0
</weight>
<weight id='rwgt_354'>set param_card dim6 1 0.0 # orig: 25.0
set param_card dim6 2 240.0 # orig: 0.0
set param_card dim6 3 -80.0 # orig: 0.0
</weight>
<weight id='rwgt_355'>set param_card dim6 1 0.0 # orig: 25.0
set param_card dim6 2 -240.0 # orig: 0.0
set param_card dim6 3 80.0 # orig: 0.0
</weight>
<weight id='rwgt_356'>set param_card dim6 1 0.0 # orig: 25.0
set param_card dim6 2 -240.0 # orig: 0.0
set param_card dim6 3 -80.0 # orig: 0.0
</weight>
<weight id='rwgt_357'>set param_card dim6 1 0.0 # orig: 25.0
set param_card dim6 2 240.0 # orig: 0.0
set param_card dim6 3 160.0 # orig: 0.0
</weight>
<weight id='rwgt_358'>set param_card dim6 1 0.0 # orig: 25.0
set param_card dim6 2 240.0 # orig: 0.0
set param_card dim6 3 -160.0 # orig: 0.0
</weight>
<weight id='rwgt_359'>set param_card dim6 1 0.0 # orig: 25.0
set param_card dim6 2 -240.0 # orig: 0.0
set param_card dim6 3 160.0 # orig: 0.0
</weight>
<weight id='rwgt_360'>set param_card dim6 1 0.0 # orig: 25.0
set param_card dim6 2 -240.0 # orig: 0.0
set param_card dim6 3 -160.0 # orig: 0.0
</weight>
<weight id='rwgt_361'>set param_card dim6 1 0.0 # orig: 25.0
set param_card dim6 2 240.0 # orig: 0.0
set param_card dim6 3 240.0 # orig: 0.0
</weight>
<weight id='rwgt_362'>set param_card dim6 1 0.0 # orig: 25.0
set param_card dim6 2 240.0 # orig: 0.0
set param_card dim6 3 -240.0 # orig: 0.0
</weight>
<weight id='rwgt_363'>set param_card dim6 1 0.0 # orig: 25.0
set param_card dim6 2 -240.0 # orig: 0.0
set param_card dim6 3 240.0 # orig: 0.0
</weight>
<weight id='rwgt_364'>set param_card dim6 1 0.0 # orig: 25.0
set param_card dim6 2 -240.0 # orig: 0.0
set param_card dim6 3 -240.0 # orig: 0.0
</weight>
<weight id='rwgt_365'>set param_card dim6 1 0.0 # orig: 25.0
set param_card dim6 2 240.0 # orig: 0.0
</weight>
<weight id='rwgt_366'>set param_card dim6 1 0.0 # orig: 25.0
set param_card dim6 2 -240.0 # orig: 0.0
</weight>
<weight id='rwgt_367'>set param_card dim6 1 0.0 # orig: 25.0
set param_card dim6 3 80.0 # orig: 0.0
</weight>
<weight id='rwgt_368'>set param_card dim6 1 0.0 # orig: 25.0
set param_card dim6 3 -80.0 # orig: 0.0
</weight>
<weight id='rwgt_369'>set param_card dim6 1 0.0 # orig: 25.0
set param_card dim6 3 160.0 # orig: 0.0
</weight>
<weight id='rwgt_370'>set param_card dim6 1 0.0 # orig: 25.0
set param_card dim6 3 -160.0 # orig: 0.0
</weight>
<weight id='rwgt_371'>set param_card dim6 1 0.0 # orig: 25.0
set param_card dim6 3 240.0 # orig: 0.0
</weight>
<weight id='rwgt_372'>set param_card dim6 1 0.0 # orig: 25.0
set param_card dim6 3 -240.0 # orig: 0.0
</weight>
<weight id='rwgt_373'>set param_card dim6 1 0.0 # orig: 25.0
</weight>
</weightgroup>
]]>
</initrwgt>
<scalesfunctionalform>
muR  FxFx merging scale
    muF1 FxFx merging scale
    muF2 FxFx merging scale
    QES  H_T/2 := sum_i mT(i)/2, i=final state
</scalesfunctionalform>
</header>
<init>
2212   2212 0.65000000E+04 0.65000000E+04 -1 -1 292200 292200 -4   2
 0.53379517E+01 0.14868918E-01 0.19963618E+02      1
 0.44385422E+01 0.83443588E-02 0.19963618E+02      0
</init>
<event npLO=" -1 " npNLO=" 1 ">
 7      1 +1.9963618e+01 1.78696790e+01 7.54677110e-03 1.56736470e-01
       -1 -1    0    0    0  501 +0.0000000000e+00 +0.0000000000e+00 +3.0134656000e+01 3.0134656000e+01 0.0000000000e+00 0.0000e+00 9.0000e+00
        2 -1    0    0  502    0 +0.0000000000e+00 +0.0000000000e+00 -4.2165779000e+02 4.2165779000e+02 0.0000000000e+00 0.0000e+00 9.0000e+00
       24  2    1    2    0    0 +1.6785924000e+01 -6.2837289000e+01 -1.1210544000e+02 1.5194657000e+02 7.9308492000e+01 0.0000e+00 0.0000e+00
      -15  1    3    3    0    0 +2.3686047000e+00 -7.2254092000e+01 -5.1027910000e+01 8.8487918000e+01 0.0000000000e+00 0.0000e+00 9.0000e+00
       16  1    3    3    0    0 +1.4417320000e+01 +9.4168027000e+00 -6.1077529000e+01 6.3458647000e+01 0.0000000000e+00 0.0000e+00 9.0000e+00
       22  1    1    2    0    0 -2.7846712000e+01 +7.6872403000e+01 -1.6615048000e+02 1.8517772000e+02 0.0000000000e+00 0.0000e+00 9.0000e+00
       21  1    1    2  502  501 +1.1060788000e+01 -1.4035114000e+01 -1.1326721000e+02 1.1466816000e+02 0.0000000000e+00 0.0000e+00 9.0000e+00
#aMCatNLO 1  0  0  1  2 0.56336737E+03 0.00000000E+00 -9  7  0 0.00000000E+00 0.00000000E+00 0.00000000E+00 0.00000000E+00 0.00000000E+00
<rwgt>
<wgt id='1001'> +1.9964000e+01 </wgt>
<wgt id='1002'> +1.7659000e+01 </wgt>
<wgt id='1003'> +2.2988000e+01 </wgt>
<wgt id='1004'> +2.1005000e+01 </wgt>
<wgt id='1005'> +1.8628000e+01 </wgt>
<wgt id='1006'> +2.4102000e+01 </wgt>
<wgt id='1007'> +1.9426000e+01 </wgt>
<wgt id='1008'> +1.7047000e+01 </wgt>
<wgt id='1009'> +2.2608000e+01 </wgt>
<wgt id='1010'> +1.9964000e+01 </wgt>
<wgt id='1011'> +1.9346000e+01 </wgt>
<wgt id='1012'> +2.0161000e+01 </wgt>
<wgt id='1013'> +2.1264000e+01 </wgt>
<wgt id='1014'> +2.0646000e+01 </wgt>
<wgt id='1015'> +1.8822000e+01 </wgt>
<wgt id='1016'> +1.9296000e+01 </wgt>
<wgt id='1017'> +2.0180000e+01 </wgt>
<wgt id='1018'> +1.9861000e+01 </wgt>
<wgt id='1019'> +1.9989000e+01 </wgt>
<wgt id='1020'> +1.9614000e+01 </wgt>
<wgt id='1021'> +1.9810000e+01 </wgt>
<wgt id='1022'> +2.0051000e+01 </wgt>
<wgt id='1023'> +2.0478000e+01 </wgt>
<wgt id='1024'> +1.9921000e+01 </wgt>
<wgt id='1025'> +1.9919000e+01 </wgt>
<wgt id='1026'> +1.9544000e+01 </wgt>
<wgt id='1027'> +1.9467000e+01 </wgt>
<wgt id='1028'> +1.8889000e+01 </wgt>
<wgt id='1029'> +1.9908000e+01 </wgt>
<wgt id='1030'> +1.9646000e+01 </wgt>
<wgt id='1031'> +2.1008000e+01 </wgt>
<wgt id='1032'> +2.0269000e+01 </wgt>
<wgt id='1033'> +2.0726000e+01 </wgt>
<wgt id='1034'> +2.0121000e+01 </wgt>
<wgt id='1035'> +2.0016000e+01 </wgt>
<wgt id='1036'> +2.0111000e+01 </wgt>
<wgt id='1037'> +1.9477000e+01 </wgt>
<wgt id='1038'> +1.9640000e+01 </wgt>
<wgt id='1039'> +1.9722000e+01 </wgt>
<wgt id='1040'> +2.0190000e+01 </wgt>
<wgt id='1041'> +2.0463000e+01 </wgt>
<wgt id='1042'> +1.9642000e+01 </wgt>
<wgt id='1043'> +2.0083000e+01 </wgt>
<wgt id='1044'> +2.0118000e+01 </wgt>
<wgt id='1045'> +2.0569000e+01 </wgt>
<wgt id='1046'> +1.9874000e+01 </wgt>
<wgt id='1047'> +1.9663000e+01 </wgt>
<wgt id='1048'> +1.9222000e+01 </wgt>
<wgt id='1049'> +2.0008000e+01 </wgt>
<wgt id='1050'> +2.0214000e+01 </wgt>
<wgt id='1051'> +2.0516000e+01 </wgt>
<wgt id='1052'> +2.0186000e+01 </wgt>
<wgt id='1053'> +2.0130000e+01 </wgt>
<wgt id='1054'> +1.9932000e+01 </wgt>
<wgt id='1055'> +2.0370000e+01 </wgt>
<wgt id='1056'> +1.9887000e+01 </wgt>
<wgt id='1057'> +1.9695000e+01 </wgt>
<wgt id='1058'> +1.9769000e+01 </wgt>
<wgt id='1059'> +2.0064000e+01 </wgt>
<wgt id='1060'> +2.0466000e+01 </wgt>
<wgt id='1061'> +2.0273000e+01 </wgt>
<wgt id='1062'> +1.9834000e+01 </wgt>
<wgt id='1063'> +1.9723000e+01 </wgt>
<wgt id='1064'> +2.0315000e+01 </wgt>
<wgt id='1065'> +2.0026000e+01 </wgt>
<wgt id='1066'> +1.9743000e+01 </wgt>
<wgt id='1067'> +2.0571000e+01 </wgt>
<wgt id='1068'> +2.0371000e+01 </wgt>
<wgt id='1069'> +2.0214000e+01 </wgt>
<wgt id='1070'> +2.0337000e+01 </wgt>
<wgt id='1071'> +1.9834000e+01 </wgt>
<wgt id='1072'> +1.9981000e+01 </wgt>
<wgt id='1073'> +1.9702000e+01 </wgt>
<wgt id='1074'> +1.9214000e+01 </wgt>
<wgt id='1075'> +2.0250000e+01 </wgt>
<wgt id='1076'> +1.9811000e+01 </wgt>
<wgt id='1077'> +2.0090000e+01 </wgt>
<wgt id='1078'> +2.0326000e+01 </wgt>
<wgt id='1079'> +1.9603000e+01 </wgt>
<wgt id='1080'> +1.9643000e+01 </wgt>
<wgt id='1081'> +2.0105000e+01 </wgt>
<wgt id='1082'> +1.9190000e+01 </wgt>
<wgt id='1083'> +1.8839000e+01 </wgt>
<wgt id='1084'> +2.0238000e+01 </wgt>
<wgt id='1085'> +2.0032000e+01 </wgt>
<wgt id='1086'> +1.9311000e+01 </wgt>
<wgt id='1087'> +1.9809000e+01 </wgt>
<wgt id='1088'> +2.0367000e+01 </wgt>
<wgt id='1089'> +1.9524000e+01 </wgt>
<wgt id='1090'> +2.0393000e+01 </wgt>
<wgt id='1091'> +2.0635000e+01 </wgt>
<wgt id='1092'> +2.0520000e+01 </wgt>
<wgt id='1093'> +1.9482000e+01 </wgt>
<wgt id='1094'> +2.0131000e+01 </wgt>
<wgt id='1095'> +1.9662000e+01 </wgt>
<wgt id='1096'> +1.9757000e+01 </wgt>
<wgt id='1097'> +2.0045000e+01 </wgt>
<wgt id='1098'> +2.0531000e+01 </wgt>
<wgt id='1099'> +1.9524000e+01 </wgt>
<wgt id='1100'> +2.0180000e+01 </wgt>
<wgt id='1101'> +2.0331000e+01 </wgt>
<wgt id='1102'> +1.9857000e+01 </wgt>
<wgt id='1103'> +1.9738000e+01 </wgt>
<wgt id='1104'> +2.0054000e+01 </wgt>
<wgt id='1105'> +1.9260000e+01 </wgt>
<wgt id='1106'> +1.9841000e+01 </wgt>
<wgt id='1107'> +2.0130000e+01 </wgt>
<wgt id='1108'> +2.0335000e+01 </wgt>
<wgt id='1109'> +2.0309000e+01 </wgt>
<wgt id='1110'> +1.9330000e+01 </wgt>
<wgt id='1111'> +1.9604000e+01 </wgt>
<wgt id='1112'> +2.0364000e+01 </wgt>
<wgt id='rwgt_1'> +1.9740200e+01 </wgt>
<wgt id='rwgt_2'> +2.0825190e+01 </wgt>
<wgt id='rwgt_3'> +1.9790368e+01 </wgt>
<wgt id='rwgt_4'> +2.1960349e+01 </wgt>
<wgt id='rwgt_5'> +2.3490617e+01 </wgt>
<wgt id='rwgt_6'> +2.0235645e+01 </wgt>
<wgt id='rwgt_7'> +2.1820901e+01 </wgt>
<wgt id='rwgt_8'> +1.9654884e+01 </wgt>
<wgt id='rwgt_9'> +2.4862165e+01 </wgt>
<wgt id='rwgt_10'> +2.0530130e+01 </wgt>
<wgt id='rwgt_11'> +2.9208933e+01 </wgt>
<wgt id='rwgt_12'> +2.2710880e+01 </wgt>
<wgt id='rwgt_13'> +2.1820901e+01 </wgt>
<wgt id='rwgt_14'> +1.9654884e+01 </wgt>
<wgt id='rwgt_15'> +2.4862165e+01 </wgt>
<wgt id='rwgt_16'> +2.0530130e+01 </wgt>
<wgt id='rwgt_17'> +2.9208933e+01 </wgt>
<wgt id='rwgt_18'> +2.2710880e+01 </wgt>
<wgt id='rwgt_19'> +2.0217287e+01 </wgt>
<wgt id='rwgt_20'> +2.0205864e+01 </wgt>
<wgt id='rwgt_21'> +2.0602304e+01 </wgt>
<wgt id='rwgt_22'> +2.0579457e+01 </wgt>
<wgt id='rwgt_23'> +2.1240190e+01 </wgt>
<wgt id='rwgt_24'> +2.1205919e+01 </wgt>
<wgt id='rwgt_25'> +2.3006875e+01 </wgt>
<wgt id='rwgt_26'> +1.8468909e+01 </wgt>
<wgt id='rwgt_27'> +2.7234114e+01 </wgt>
<wgt id='rwgt_28'> +1.8158181e+01 </wgt>
<wgt id='rwgt_29'> +3.2766856e+01 </wgt>
<wgt id='rwgt_30'> +1.9152957e+01 </wgt>
<wgt id='rwgt_31'> +2.5798035e+01 </wgt>
<wgt id='rwgt_32'> +1.9740200e+01 </wgt>
<wgt id='rwgt_33'> +1.9740200e+01 </wgt>
<wgt id='rwgt_34'> +1.8904379e+01 </wgt>
<wgt id='rwgt_35'> +3.0785208e+01 </wgt>
<wgt id='rwgt_36'> +1.8669537e+01 </wgt>
<wgt id='rwgt_37'> +2.2116366e+01 </wgt>
<wgt id='rwgt_38'> +2.0444723e+01 </wgt>
<wgt id='rwgt_39'> +3.7077884e+01 </wgt>
<wgt id='rwgt_40'> +1.8904379e+01 </wgt>
<wgt id='rwgt_41'> +2.5798035e+01 </wgt>
<wgt id='rwgt_42'> +2.3290572e+01 </wgt>
<wgt id='rwgt_43'> +2.2116366e+01 </wgt>
<wgt id='rwgt_44'> +1.8669537e+01 </wgt>
<wgt id='rwgt_45'> +3.0785208e+01 </wgt>
<wgt id='rwgt_46'> +2.2116366e+01 </wgt>
<wgt id='rwgt_47'> +1.8669537e+01 </wgt>
<wgt id='rwgt_48'> +2.0444723e+01 </wgt>
<wgt id='rwgt_49'> +3.7077884e+01 </wgt>
<wgt id='rwgt_50'> +1.9740200e+01 </wgt>
<wgt id='rwgt_51'> +1.9740200e+01 </wgt>
<wgt id='rwgt_52'> +2.3290572e+01 </wgt>
<wgt id='rwgt_53'> +4.4676064e+01 </wgt>
<wgt id='rwgt_54'> +1.8669537e+01 </wgt>
<wgt id='rwgt_55'> +2.2116366e+01 </wgt>
<wgt id='rwgt_56'> +2.7441924e+01 </wgt>
<wgt id='rwgt_57'> +2.5798035e+01 </wgt>
<wgt id='rwgt_58'> +1.8904379e+01 </wgt>
<wgt id='rwgt_59'> +3.7077884e+01 </wgt>
<wgt id='rwgt_60'> +2.5798035e+01 </wgt>
<wgt id='rwgt_61'> +1.8904379e+01 </wgt>
<wgt id='rwgt_62'> +2.3290572e+01 </wgt>
<wgt id='rwgt_63'> +4.4676064e+01 </wgt>
<wgt id='rwgt_64'> +2.2116366e+01 </wgt>
<wgt id='rwgt_65'> +1.8669537e+01 </wgt>
<wgt id='rwgt_66'> +2.7441924e+01 </wgt>
<wgt id='rwgt_67'> +5.3579748e+01 </wgt>
<wgt id='rwgt_68'> +1.9740200e+01 </wgt>
<wgt id='rwgt_69'> +1.9740200e+01 </wgt>
<wgt id='rwgt_70'> +3.2898779e+01 </wgt>
<wgt id='rwgt_71'> +3.0785208e+01 </wgt>
<wgt id='rwgt_72'> +2.0444723e+01 </wgt>
<wgt id='rwgt_73'> +2.2116366e+01 </wgt>
<wgt id='rwgt_74'> +1.8669537e+01 </wgt>
<wgt id='rwgt_75'> +2.5798035e+01 </wgt>
<wgt id='rwgt_76'> +1.8904379e+01 </wgt>
<wgt id='rwgt_77'> +3.0785208e+01 </wgt>
<wgt id='rwgt_78'> +2.0444723e+01 </wgt>
<wgt id='rwgt_79'> +1.9740200e+01 </wgt>
<wgt id='rwgt_80'> +2.4321404e+01 </wgt>
<wgt id='rwgt_81'> +2.0825190e+01 </wgt>
<wgt id='rwgt_82'> +2.0825190e+01 </wgt>
<wgt id='rwgt_83'> +2.2550991e+01 </wgt>
<wgt id='rwgt_84'> +2.8027766e+01 </wgt>
<wgt id='rwgt_85'> +2.1035339e+01 </wgt>
<wgt id='rwgt_86'> +2.1920546e+01 </wgt>
<wgt id='rwgt_87'> +2.5372146e+01 </wgt>
<wgt id='rwgt_88'> +3.3039632e+01 </wgt>
<wgt id='rwgt_89'> +2.2550991e+01 </wgt>
<wgt id='rwgt_90'> +2.4321404e+01 </wgt>
<wgt id='rwgt_91'> +2.9498805e+01 </wgt>
<wgt id='rwgt_92'> +2.1920546e+01 </wgt>
<wgt id='rwgt_93'> +2.1035339e+01 </wgt>
<wgt id='rwgt_94'> +2.8027766e+01 </wgt>
<wgt id='rwgt_95'> +2.1920546e+01 </wgt>
<wgt id='rwgt_96'> +2.1035339e+01 </wgt>
<wgt id='rwgt_97'> +2.5372146e+01 </wgt>
<wgt id='rwgt_98'> +3.3039632e+01 </wgt>
<wgt id='rwgt_99'> +2.0825190e+01 </wgt>
<wgt id='rwgt_100'> +2.0825190e+01 </wgt>
<wgt id='rwgt_101'> +2.9498805e+01 </wgt>
<wgt id='rwgt_102'> +3.9357002e+01 </wgt>
<wgt id='rwgt_103'> +2.1035339e+01 </wgt>
<wgt id='rwgt_104'> +2.1920546e+01 </wgt>
<wgt id='rwgt_105'> +3.4930968e+01 </wgt>
<wgt id='rwgt_106'> +2.4321404e+01 </wgt>
<wgt id='rwgt_107'> +2.2550991e+01 </wgt>
<wgt id='rwgt_108'> +3.3039632e+01 </wgt>
<wgt id='rwgt_109'> +2.4321404e+01 </wgt>
<wgt id='rwgt_110'> +2.2550991e+01 </wgt>
<wgt id='rwgt_111'> +2.9498805e+01 </wgt>
<wgt id='rwgt_112'> +3.9357002e+01 </wgt>
<wgt id='rwgt_113'> +2.1920546e+01 </wgt>
<wgt id='rwgt_114'> +2.1035339e+01 </wgt>
<wgt id='rwgt_115'> +3.4930968e+01 </wgt>
<wgt id='rwgt_116'> +4.6979874e+01 </wgt>
<wgt id='rwgt_117'> +2.0825190e+01 </wgt>
<wgt id='rwgt_118'> +2.0825190e+01 </wgt>
<wgt id='rwgt_119'> +4.1668634e+01 </wgt>
<wgt id='rwgt_120'> +2.8027766e+01 </wgt>
<wgt id='rwgt_121'> +2.5372146e+01 </wgt>
<wgt id='rwgt_122'> +2.1920546e+01 </wgt>
<wgt id='rwgt_123'> +2.1035339e+01 </wgt>
<wgt id='rwgt_124'> +2.4321404e+01 </wgt>
<wgt id='rwgt_125'> +2.2550991e+01 </wgt>
<wgt id='rwgt_126'> +2.8027766e+01 </wgt>
<wgt id='rwgt_127'> +2.5372146e+01 </wgt>
<wgt id='rwgt_128'> +2.0825190e+01 </wgt>
<wgt id='rwgt_129'> +2.7129014e+01 </wgt>
<wgt id='rwgt_130'> +1.9790368e+01 </wgt>
<wgt id='rwgt_131'> +1.9790368e+01 </wgt>
<wgt id='rwgt_132'> +1.7673736e+01 </wgt>
<wgt id='rwgt_133'> +3.2756592e+01 </wgt>
<wgt id='rwgt_134'> +1.8079300e+01 </wgt>
<wgt id='rwgt_135'> +2.2806939e+01 </wgt>
<wgt id='rwgt_136'> +1.8573676e+01 </wgt>
<wgt id='rwgt_137'> +3.9689674e+01 </wgt>
<wgt id='rwgt_138'> +1.7673736e+01 </wgt>
<wgt id='rwgt_139'> +2.7129014e+01 </wgt>
<wgt id='rwgt_140'> +2.0779119e+01 </wgt>
<wgt id='rwgt_141'> +2.2806939e+01 </wgt>
<wgt id='rwgt_142'> +1.8079300e+01 </wgt>
<wgt id='rwgt_143'> +3.2756592e+01 </wgt>
<wgt id='rwgt_144'> +2.2806939e+01 </wgt>
<wgt id='rwgt_145'> +1.8079300e+01 </wgt>
<wgt id='rwgt_146'> +1.8573676e+01 </wgt>
<wgt id='rwgt_147'> +3.9689674e+01 </wgt>
<wgt id='rwgt_148'> +1.9790368e+01 </wgt>
<wgt id='rwgt_149'> +1.9790368e+01 </wgt>
<wgt id='rwgt_150'> +2.0779119e+01 </wgt>
<wgt id='rwgt_151'> +4.7928259e+01 </wgt>
<wgt id='rwgt_152'> +1.8079300e+01 </wgt>
<wgt id='rwgt_153'> +2.2806939e+01 </wgt>
<wgt id='rwgt_154'> +2.4290065e+01 </wgt>
<wgt id='rwgt_155'> +2.7129014e+01 </wgt>
<wgt id='rwgt_156'> +1.7673736e+01 </wgt>
<wgt id='rwgt_157'> +3.9689674e+01 </wgt>
<wgt id='rwgt_158'> +2.7129014e+01 </wgt>
<wgt id='rwgt_159'> +1.7673736e+01 </wgt>
<wgt id='rwgt_160'> +2.0779119e+01 </wgt>
<wgt id='rwgt_161'> +4.7928259e+01 </wgt>
<wgt id='rwgt_162'> +2.2806939e+01 </wgt>
<wgt id='rwgt_163'> +1.8079300e+01 </wgt>
<wgt id='rwgt_164'> +2.4290065e+01 </wgt>
<wgt id='rwgt_165'> +5.7472348e+01 </wgt>
<wgt id='rwgt_166'> +1.9790368e+01 </wgt>
<wgt id='rwgt_167'> +1.9790368e+01 </wgt>
<wgt id='rwgt_168'> +2.9106515e+01 </wgt>
<wgt id='rwgt_169'> +3.2756592e+01 </wgt>
<wgt id='rwgt_170'> +1.8573676e+01 </wgt>
<wgt id='rwgt_171'> +2.2806939e+01 </wgt>
<wgt id='rwgt_172'> +1.8079300e+01 </wgt>
<wgt id='rwgt_173'> +2.7129014e+01 </wgt>
<wgt id='rwgt_174'> +1.7673736e+01 </wgt>
<wgt id='rwgt_175'> +3.2756592e+01 </wgt>
<wgt id='rwgt_176'> +1.8573676e+01 </wgt>
<wgt id='rwgt_177'> +1.9790368e+01 </wgt>
<wgt id='rwgt_178'> +2.4175752e+01 </wgt>
<wgt id='rwgt_179'> +2.1960349e+01 </wgt>
<wgt id='rwgt_180'> +2.1960349e+01 </wgt>
<wgt id='rwgt_181'> +2.4966960e+01 </wgt>
<wgt id='rwgt_182'> +2.7241709e+01 </wgt>
<wgt id='rwgt_183'> +2.2810903e+01 </wgt>
<wgt id='rwgt_184'> +2.2415299e+01 </wgt>
<wgt id='rwgt_185'> +2.8428521e+01 </wgt>
<wgt id='rwgt_186'> +3.1613170e+01 </wgt>
<wgt id='rwgt_187'> +2.4966960e+01 </wgt>
<wgt id='rwgt_188'> +2.4175752e+01 </wgt>
<wgt id='rwgt_189'> +3.3195586e+01 </wgt>
<wgt id='rwgt_190'> +2.2415299e+01 </wgt>
<wgt id='rwgt_191'> +2.2810903e+01 </wgt>
<wgt id='rwgt_192'> +2.7241709e+01 </wgt>
<wgt id='rwgt_193'> +2.2415299e+01 </wgt>
<wgt id='rwgt_194'> +2.2810903e+01 </wgt>
<wgt id='rwgt_195'> +2.8428521e+01 </wgt>
<wgt id='rwgt_196'> +3.1613170e+01 </wgt>
<wgt id='rwgt_197'> +2.1960349e+01 </wgt>
<wgt id='rwgt_198'> +2.1960349e+01 </wgt>
<wgt id='rwgt_199'> +3.3195586e+01 </wgt>
<wgt id='rwgt_200'> +3.7290134e+01 </wgt>
<wgt id='rwgt_201'> +2.2810903e+01 </wgt>
<wgt id='rwgt_202'> +2.2415299e+01 </wgt>
<wgt id='rwgt_203'> +3.9268154e+01 </wgt>
<wgt id='rwgt_204'> +2.4175752e+01 </wgt>
<wgt id='rwgt_205'> +2.4966960e+01 </wgt>
<wgt id='rwgt_206'> +3.1613170e+01 </wgt>
<wgt id='rwgt_207'> +2.4175752e+01 </wgt>
<wgt id='rwgt_208'> +2.4966960e+01 </wgt>
<wgt id='rwgt_209'> +3.3195586e+01 </wgt>
<wgt id='rwgt_210'> +3.7290134e+01 </wgt>
<wgt id='rwgt_211'> +2.2415299e+01 </wgt>
<wgt id='rwgt_212'> +2.2810903e+01 </wgt>
<wgt id='rwgt_213'> +3.9268154e+01 </wgt>
<wgt id='rwgt_214'> +4.4272601e+01 </wgt>
<wgt id='rwgt_215'> +2.1960349e+01 </wgt>
<wgt id='rwgt_216'> +2.1960349e+01 </wgt>
<wgt id='rwgt_217'> +4.6646225e+01 </wgt>
<wgt id='rwgt_218'> +2.7241709e+01 </wgt>
<wgt id='rwgt_219'> +2.8428521e+01 </wgt>
<wgt id='rwgt_220'> +2.2415299e+01 </wgt>
<wgt id='rwgt_221'> +2.2810903e+01 </wgt>
<wgt id='rwgt_222'> +2.4175752e+01 </wgt>
<wgt id='rwgt_223'> +2.4966960e+01 </wgt>
<wgt id='rwgt_224'> +2.7241709e+01 </wgt>
<wgt id='rwgt_225'> +2.8428521e+01 </wgt>
<wgt id='rwgt_226'> +2.1960349e+01 </wgt>
<wgt id='rwgt_227'> +2.8855102e+01 </wgt>
<wgt id='rwgt_228'> +2.0235645e+01 </wgt>
<wgt id='rwgt_229'> +2.0235645e+01 </wgt>
<wgt id='rwgt_230'> +1.6838203e+01 </wgt>
<wgt id='rwgt_231'> +3.5123086e+01 </wgt>
<wgt id='rwgt_232'> +1.7884172e+01 </wgt>
<wgt id='rwgt_233'> +2.3892622e+01 </wgt>
<wgt id='rwgt_234'> +1.7097737e+01 </wgt>
<wgt id='rwgt_235'> +4.2696573e+01 </wgt>
<wgt id='rwgt_236'> +1.6838203e+01 </wgt>
<wgt id='rwgt_237'> +2.8855102e+01 </wgt>
<wgt id='rwgt_238'> +1.8662774e+01 </wgt>
<wgt id='rwgt_239'> +2.3892622e+01 </wgt>
<wgt id='rwgt_240'> +1.7884172e+01 </wgt>
<wgt id='rwgt_241'> +3.5123086e+01 </wgt>
<wgt id='rwgt_242'> +2.3892622e+01 </wgt>
<wgt id='rwgt_243'> +1.7884172e+01 </wgt>
<wgt id='rwgt_244'> +1.7097737e+01 </wgt>
<wgt id='rwgt_245'> +4.2696573e+01 </wgt>
<wgt id='rwgt_246'> +2.0235645e+01 </wgt>
<wgt id='rwgt_247'> +2.0235645e+01 </wgt>
<wgt id='rwgt_248'> +1.8662774e+01 </wgt>
<wgt id='rwgt_249'> +5.1575564e+01 </wgt>
<wgt id='rwgt_250'> +1.7884172e+01 </wgt>
<wgt id='rwgt_251'> +2.3892622e+01 </wgt>
<wgt id='rwgt_252'> +2.1533316e+01 </wgt>
<wgt id='rwgt_253'> +2.8855102e+01 </wgt>
<wgt id='rwgt_254'> +1.6838203e+01 </wgt>
<wgt id='rwgt_255'> +4.2696573e+01 </wgt>
<wgt id='rwgt_256'> +2.8855102e+01 </wgt>
<wgt id='rwgt_257'> +1.6838203e+01 </wgt>
<wgt id='rwgt_258'> +1.8662774e+01 </wgt>
<wgt id='rwgt_259'> +5.1575564e+01 </wgt>
<wgt id='rwgt_260'> +2.3892622e+01 </wgt>
<wgt id='rwgt_261'> +1.7884172e+01 </wgt>
<wgt id='rwgt_262'> +2.1533316e+01 </wgt>
<wgt id='rwgt_263'> +6.1760058e+01 </wgt>
<wgt id='rwgt_264'> +2.0235645e+01 </wgt>
<wgt id='rwgt_265'> +2.0235645e+01 </wgt>
<wgt id='rwgt_266'> +2.5709360e+01 </wgt>
<wgt id='rwgt_267'> +3.5123086e+01 </wgt>
<wgt id='rwgt_268'> +1.7097737e+01 </wgt>
<wgt id='rwgt_269'> +2.3892622e+01 </wgt>
<wgt id='rwgt_270'> +1.7884172e+01 </wgt>
<wgt id='rwgt_271'> +2.8855102e+01 </wgt>
<wgt id='rwgt_272'> +1.6838203e+01 </wgt>
<wgt id='rwgt_273'> +3.5123086e+01 </wgt>
<wgt id='rwgt_274'> +1.7097737e+01 </wgt>
<wgt id='rwgt_275'> +2.0235645e+01 </wgt>
<wgt id='rwgt_276'> +2.4425210e+01 </wgt>
<wgt id='rwgt_277'> +2.3490617e+01 </wgt>
<wgt id='rwgt_278'> +2.3490617e+01 </wgt>
<wgt id='rwgt_279'> +2.7778039e+01 </wgt>
<wgt id='rwgt_280'> +2.6850761e+01 </wgt>
<wgt id='rwgt_281'> +2.4981576e+01 </wgt>
<wgt id='rwgt_282'> +2.3305162e+01 </wgt>
<wgt id='rwgt_283'> +3.1880005e+01 </wgt>
<wgt id='rwgt_284'> +3.0581816e+01 </wgt>
<wgt id='rwgt_285'> +2.7778039e+01 </wgt>
<wgt id='rwgt_286'> +2.4425210e+01 </wgt>
<wgt id='rwgt_287'> +3.7287475e+01 </wgt>
<wgt id='rwgt_288'> +2.3305162e+01 </wgt>
<wgt id='rwgt_289'> +2.4981576e+01 </wgt>
<wgt id='rwgt_290'> +2.6850761e+01 </wgt>
<wgt id='rwgt_291'> +2.3305162e+01 </wgt>
<wgt id='rwgt_292'> +2.4981576e+01 </wgt>
<wgt id='rwgt_293'> +3.1880005e+01 </wgt>
<wgt id='rwgt_294'> +3.0581816e+01 </wgt>
<wgt id='rwgt_295'> +2.3490617e+01 </wgt>
<wgt id='rwgt_296'> +2.3490617e+01 </wgt>
<wgt id='rwgt_297'> +3.7287475e+01 </wgt>
<wgt id='rwgt_298'> +3.5618375e+01 </wgt>
<wgt id='rwgt_299'> +2.4981576e+01 </wgt>
<wgt id='rwgt_300'> +2.3305162e+01 </wgt>
<wgt id='rwgt_301'> +4.4000448e+01 </wgt>
<wgt id='rwgt_302'> +2.4425210e+01 </wgt>
<wgt id='rwgt_303'> +2.7778039e+01 </wgt>
<wgt id='rwgt_304'> +3.0581816e+01 </wgt>
<wgt id='rwgt_305'> +2.4425210e+01 </wgt>
<wgt id='rwgt_306'> +2.7778039e+01 </wgt>
<wgt id='rwgt_307'> +3.7287475e+01 </wgt>
<wgt id='rwgt_308'> +3.5618375e+01 </wgt>
<wgt id='rwgt_309'> +2.3305162e+01 </wgt>
<wgt id='rwgt_310'> +2.4981576e+01 </wgt>
<wgt id='rwgt_311'> +4.4000448e+01 </wgt>
<wgt id='rwgt_312'> +4.1960437e+01 </wgt>
<wgt id='rwgt_313'> +2.3490617e+01 </wgt>
<wgt id='rwgt_314'> +2.3490617e+01 </wgt>
<wgt id='rwgt_315'> +5.2018925e+01 </wgt>
<wgt id='rwgt_316'> +2.6850761e+01 </wgt>
<wgt id='rwgt_317'> +3.1880005e+01 </wgt>
<wgt id='rwgt_318'> +2.3305162e+01 </wgt>
<wgt id='rwgt_319'> +2.4981576e+01 </wgt>
<wgt id='rwgt_320'> +2.4425210e+01 </wgt>
<wgt id='rwgt_321'> +2.7778039e+01 </wgt>
<wgt id='rwgt_322'> +2.6850761e+01 </wgt>
<wgt id='rwgt_323'> +3.1880005e+01 </wgt>
<wgt id='rwgt_324'> +2.3490617e+01 </wgt>
<wgt id='rwgt_325'> +2.4862165e+01 </wgt>
<wgt id='rwgt_326'> +2.0085141e+01 </wgt>
<wgt id='rwgt_327'> +2.0085141e+01 </wgt>
<wgt id='rwgt_328'> +2.0530130e+01 </wgt>
<wgt id='rwgt_329'> +2.9208933e+01 </wgt>
<wgt id='rwgt_330'> +1.9654884e+01 </wgt>
<wgt id='rwgt_331'> +2.1820901e+01 </wgt>
<wgt id='rwgt_332'> +2.2710880e+01 </wgt>
<wgt id='rwgt_333'> +3.4861204e+01 </wgt>
<wgt id='rwgt_334'> +2.0530130e+01 </wgt>
<wgt id='rwgt_335'> +2.4862165e+01 </wgt>
<wgt id='rwgt_336'> +2.6197134e+01 </wgt>
<wgt id='rwgt_337'> +2.1820901e+01 </wgt>
<wgt id='rwgt_338'> +1.9654884e+01 </wgt>
<wgt id='rwgt_339'> +2.9208933e+01 </wgt>
<wgt id='rwgt_340'> +2.1820901e+01 </wgt>
<wgt id='rwgt_341'> +1.9654884e+01 </wgt>
<wgt id='rwgt_342'> +2.2710880e+01 </wgt>
<wgt id='rwgt_343'> +3.4861204e+01 </wgt>
<wgt id='rwgt_344'> +2.0085141e+01 </wgt>
<wgt id='rwgt_345'> +2.0085141e+01 </wgt>
<wgt id='rwgt_346'> +2.6197134e+01 </wgt>
<wgt id='rwgt_347'> +4.1818978e+01 </wgt>
<wgt id='rwgt_348'> +1.9654884e+01 </wgt>
<wgt id='rwgt_349'> +2.1820901e+01 </wgt>
<wgt id='rwgt_350'> +3.0988891e+01 </wgt>
<wgt id='rwgt_351'> +2.4862165e+01 </wgt>
<wgt id='rwgt_352'> +2.0530130e+01 </wgt>
<wgt id='rwgt_353'> +3.4861204e+01 </wgt>
<wgt id='rwgt_354'> +2.4862165e+01 </wgt>
<wgt id='rwgt_355'> +2.0530130e+01 </wgt>
<wgt id='rwgt_356'> +2.6197134e+01 </wgt>
<wgt id='rwgt_357'> +4.1818978e+01 </wgt>
<wgt id='rwgt_358'> +2.1820901e+01 </wgt>
<wgt id='rwgt_359'> +1.9654884e+01 </wgt>
<wgt id='rwgt_360'> +3.0988891e+01 </wgt>
<wgt id='rwgt_361'> +5.0082257e+01 </wgt>
<wgt id='rwgt_362'> +2.0085141e+01 </wgt>
<wgt id='rwgt_363'> +2.0085141e+01 </wgt>
<wgt id='rwgt_364'> +3.7086152e+01 </wgt>
<wgt id='rwgt_365'> +2.9208933e+01 </wgt>
<wgt id='rwgt_366'> +2.2710880e+01 </wgt>
<wgt id='rwgt_367'> +2.1820901e+01 </wgt>
<wgt id='rwgt_368'> +1.9654884e+01 </wgt>
<wgt id='rwgt_369'> +2.4862165e+01 </wgt>
<wgt id='rwgt_370'> +2.0530130e+01 </wgt>
<wgt id='rwgt_371'> +2.9208933e+01 </wgt>
<wgt id='rwgt_372'> +2.2710880e+01 </wgt>
<wgt id='rwgt_373'> +2.0085141e+01 </wgt>
</rwgt>
</event>
<event npLO=" -1 " npNLO=" 1 ">
 7      1 +1.9963618e+01 5.40378340e+01 7.54677110e-03 1.27337010e-01
        4 -1    0    0  502    0 +0.0000000000e+00 +0.0000000000e+00 +4.1209922000e+02 4.1209922000e+02 0.0000000000e+00 0.0000e+00 9.0000e+00
       21 -1    0    0  501  502 +0.0000000000e+00 +0.0000000000e+00 -5.4311519000e+01 5.4311519000e+01 0.0000000000e+00 0.0000e+00 9.0000e+00
       24  2    1    2    0    0 -8.6190931000e+01 -4.6722066000e+01 +1.0801320000e+02 1.6657002000e+02 8.0416995000e+01 0.0000e+00 0.0000e+00
      -11  1    3    3    0    0 -4.5553961000e+01 +1.7989843000e+01 +5.4548123000e+01 7.3309587000e+01 0.0000000000e+00 0.0000e+00 9.0000e+00
       12  1    3    3    0    0 -4.0636970000e+01 -6.4711909000e+01 +5.3465079000e+01 9.3260437000e+01 0.0000000000e+00 0.0000e+00 9.0000e+00
       22  1    1    2    0    0 +1.0891652000e+02 -4.0610234000e+00 +1.4732723000e+02 1.8326105000e+02 0.0000000000e+00 0.0000e+00 9.0000e+00
        3  1    1    2  501    0 -2.2725590000e+01 +5.0783090000e+01 +1.0244727000e+02 1.1657967000e+02 0.0000000000e+00 0.0000e+00 9.0000e+00
#aMCatNLO 1  0  0  2  1 0.52318067E+02 0.00000000E+00 -9  7  0 0.00000000E+00 0.00000000E+00 0.00000000E+00 0.00000000E+00 0.00000000E+00
<rwgt>
<wgt id='1001'> +1.9964000e+01 </wgt>
<wgt id='1002'> +1.8484000e+01 </wgt>
<wgt id='1003'> +2.1663000e+01 </wgt>
<wgt id='1004'> +2.1242000e+01 </wgt>
<wgt id='1005'> +1.9671000e+01 </wgt>
<wgt id='1006'> +2.3045000e+01 </wgt>
<wgt id='1007'> +1.8210000e+01 </wgt>
<wgt id='1008'> +1.6855000e+01 </wgt>
<wgt id='1009'> +1.9768000e+01 </wgt>
<wgt id='1010'> +1.9964000e+01 </wgt>
<wgt id='1011'> +1.9435000e+01 </wgt>
<wgt id='1012'> +2.0234000e+01 </wgt>
<wgt id='1013'> +2.0343000e+01 </wgt>
<wgt id='1014'> +1.9289000e+01 </wgt>
<wgt id='1015'> +1.8881000e+01 </wgt>
<wgt id='1016'> +2.0272000e+01 </wgt>
<wgt id='1017'> +2.0042000e+01 </wgt>
<wgt id='1018'> +1.9913000e+01 </wgt>
<wgt id='1019'> +2.0289000e+01 </wgt>
<wgt id='1020'> +1.9567000e+01 </wgt>
<wgt id='1021'> +1.8889000e+01 </wgt>
<wgt id='1022'> +2.0299000e+01 </wgt>
<wgt id='1023'> +1.9840000e+01 </wgt>
<wgt id='1024'> +1.9815000e+01 </wgt>
<wgt id='1025'> +2.0392000e+01 </wgt>
<wgt id='1026'> +2.0492000e+01 </wgt>
<wgt id='1027'> +2.0100000e+01 </wgt>
<wgt id='1028'> +2.0270000e+01 </wgt>
<wgt id='1029'> +2.0169000e+01 </wgt>
<wgt id='1030'> +2.0964000e+01 </wgt>
<wgt id='1031'> +1.9966000e+01 </wgt>
<wgt id='1032'> +1.9733000e+01 </wgt>
<wgt id='1033'> +2.1098000e+01 </wgt>
<wgt id='1034'> +1.9799000e+01 </wgt>
<wgt id='1035'> +1.9893000e+01 </wgt>
<wgt id='1036'> +1.9758000e+01 </wgt>
<wgt id='1037'> +2.0192000e+01 </wgt>
<wgt id='1038'> +1.9778000e+01 </wgt>
<wgt id='1039'> +2.0434000e+01 </wgt>
<wgt id='1040'> +2.0685000e+01 </wgt>
<wgt id='1041'> +1.9614000e+01 </wgt>
<wgt id='1042'> +1.9257000e+01 </wgt>
<wgt id='1043'> +1.9705000e+01 </wgt>
<wgt id='1044'> +1.9885000e+01 </wgt>
<wgt id='1045'> +2.0548000e+01 </wgt>
<wgt id='1046'> +2.0063000e+01 </wgt>
<wgt id='1047'> +2.0402000e+01 </wgt>
<wgt id='1048'> +1.9758000e+01 </wgt>
<wgt id='1049'> +1.9585000e+01 </wgt>
<wgt id='1050'> +1.9721000e+01 </wgt>
<wgt id='1051'> +1.9919000e+01 </wgt>
<wgt id='1052'> +1.9933000e+01 </wgt>
<wgt id='1053'> +1.9701000e+01 </wgt>
<wgt id='1054'> +2.0004000e+01 </wgt>
<wgt id='1055'> +2.0146000e+01 </wgt>
<wgt id='1056'> +2.0228000e+01 </wgt>
<wgt id='1057'> +1.9729000e+01 </wgt>
<wgt id='1058'> +1.9834000e+01 </wgt>
<wgt id='1059'> +2.0108000e+01 </wgt>
<wgt id='1060'> +1.9786000e+01 </wgt>
<wgt id='1061'> +1.9780000e+01 </wgt>
<wgt id='1062'> +1.9784000e+01 </wgt>
<wgt id='1063'> +2.0270000e+01 </wgt>
<wgt id='1064'> +1.9525000e+01 </wgt>
<wgt id='1065'> +1.9585000e+01 </wgt>
<wgt id='1066'> +1.9892000e+01 </wgt>
<wgt id='1067'> +2.0339000e+01 </wgt>
<wgt id='1068'> +1.9601000e+01 </wgt>
<wgt id='1069'> +2.0744000e+01 </wgt>
<wgt id='1070'> +1.9843000e+01 </wgt>
<wgt id='1071'> +2.0029000e+01 </wgt>
<wgt id='1072'> +2.0387000e+01 </wgt>
<wgt id='1073'> +1.9515000e+01 </wgt>
<wgt id='1074'> +2.0035000e+01 </wgt>
<wgt id='1075'> +1.9832000e+01 </wgt>
<wgt id='1076'> +1.9861000e+01 </wgt>
<wgt id='1077'> +2.1330000e+01 </wgt>
<wgt id='1078'> +1.9812000e+01 </wgt>
<wgt id='1079'> +1.9146000e+01 </wgt>
<wgt id='1080'> +1.9462000e+01 </wgt>
<wgt id='1081'> +1.9854000e+01 </wgt>
<wgt id='1082'> +2.0012000e+01 </wgt>
<wgt id='1083'> +1.8980000e+01 </wgt>
<wgt id='1084'> +2.0140000e+01 </wgt>
<wgt id='1085'> +1.9826000e+01 </wgt>
<wgt id='1086'> +1.9181000e+01 </wgt>
<wgt id='1087'> +1.9686000e+01 </wgt>
<wgt id='1088'> +2.0225000e+01 </wgt>
<wgt id='1089'> +1.9811000e+01 </wgt>
<wgt id='1090'> +1.9793000e+01 </wgt>
<wgt id='1091'> +1.9969000e+01 </wgt>
<wgt id='1092'> +1.9337000e+01 </wgt>
<wgt id='1093'> +2.0746000e+01 </wgt>
<wgt id='1094'> +1.9897000e+01 </wgt>
<wgt id='1095'> +1.9767000e+01 </wgt>
<wgt id='1096'> +1.9766000e+01 </wgt>
<wgt id='1097'> +2.0131000e+01 </wgt>
<wgt id='1098'> +1.9948000e+01 </wgt>
<wgt id='1099'> +2.0767000e+01 </wgt>
<wgt id='1100'> +1.9669000e+01 </wgt>
<wgt id='1101'> +1.9467000e+01 </wgt>
<wgt id='1102'> +1.9976000e+01 </wgt>
<wgt id='1103'> +2.0149000e+01 </wgt>
<wgt id='1104'> +2.0585000e+01 </wgt>
<wgt id='1105'> +1.9943000e+01 </wgt>
<wgt id='1106'> +2.0138000e+01 </wgt>
<wgt id='1107'> +2.0019000e+01 </wgt>
<wgt id='1108'> +2.0228000e+01 </wgt>
<wgt id='1109'> +2.0273000e+01 </wgt>
<wgt id='1110'> +2.0537000e+01 </wgt>
<wgt id='1111'> +1.9498000e+01 </wgt>
<wgt id='1112'> +2.0245000e+01 </wgt>
<wgt id='rwgt_1'> +2.1568011e+01 </wgt>
<wgt id='rwgt_2'> +2.4116683e+01 </wgt>
<wgt id='rwgt_3'> +2.0469167e+01 </wgt>
<wgt id='rwgt_4'> +2.5566512e+01 </wgt>
<wgt id='rwgt_5'> +2.7133335e+01 </wgt>
<wgt id='rwgt_6'> +1.9487318e+01 </wgt>
<wgt id='rwgt_7'> +2.0381707e+01 </wgt>
<wgt id='rwgt_8'> +2.5736133e+01 </wgt>
<wgt id='rwgt_9'> +1.8529704e+01 </wgt>
<wgt id='rwgt_10'> +2.9238558e+01 </wgt>
<wgt id='rwgt_11'> +1.7227843e+01 </wgt>
<wgt id='rwgt_12'> +3.3291124e+01 </wgt>
<wgt id='rwgt_13'> +2.0381707e+01 </wgt>
<wgt id='rwgt_14'> +2.5736133e+01 </wgt>
<wgt id='rwgt_15'> +1.8529704e+01 </wgt>
<wgt id='rwgt_16'> +2.9238558e+01 </wgt>
<wgt id='rwgt_17'> +1.7227843e+01 </wgt>
<wgt id='rwgt_18'> +3.3291124e+01 </wgt>
<wgt id='rwgt_19'> +2.2925349e+01 </wgt>
<wgt id='rwgt_20'> +2.2717227e+01 </wgt>
<wgt id='rwgt_21'> +2.3141724e+01 </wgt>
<wgt id='rwgt_22'> +2.2725482e+01 </wgt>
<wgt id='rwgt_23'> +2.3432977e+01 </wgt>
<wgt id='rwgt_24'> +2.2808613e+01 </wgt>
<wgt id='rwgt_25'> +2.2035525e+01 </wgt>
<wgt id='rwgt_26'> +2.4082315e+01 </wgt>
<wgt id='rwgt_27'> +2.1837342e+01 </wgt>
<wgt id='rwgt_28'> +2.5930921e+01 </wgt>
<wgt id='rwgt_29'> +2.2189299e+01 </wgt>
<wgt id='rwgt_30'> +2.8329667e+01 </wgt>
<wgt id='rwgt_31'> +1.7548767e+01 </wgt>
<wgt id='rwgt_32'> +2.1568011e+01 </wgt>
<wgt id='rwgt_33'> +2.1568011e+01 </wgt>
<wgt id='rwgt_34'> +2.7787817e+01 </wgt>
<wgt id='rwgt_35'> +1.6364357e+01 </wgt>
<wgt id='rwgt_36'> +2.4402844e+01 </wgt>
<wgt id='rwgt_37'> +1.9283319e+01 </wgt>
<wgt id='rwgt_38'> +3.1722932e+01 </wgt>
<wgt id='rwgt_39'> +1.5730087e+01 </wgt>
<wgt id='rwgt_40'> +2.7787817e+01 </wgt>
<wgt id='rwgt_41'> +1.7548767e+01 </wgt>
<wgt id='rwgt_42'> +3.6208187e+01 </wgt>
<wgt id='rwgt_43'> +1.9283319e+01 </wgt>
<wgt id='rwgt_44'> +2.4402844e+01 </wgt>
<wgt id='rwgt_45'> +1.6364357e+01 </wgt>
<wgt id='rwgt_46'> +1.9283319e+01 </wgt>
<wgt id='rwgt_47'> +2.4402844e+01 </wgt>
<wgt id='rwgt_48'> +3.1722932e+01 </wgt>
<wgt id='rwgt_49'> +1.5730087e+01 </wgt>
<wgt id='rwgt_50'> +2.1568011e+01 </wgt>
<wgt id='rwgt_51'> +2.1568011e+01 </wgt>
<wgt id='rwgt_52'> +3.6208187e+01 </wgt>
<wgt id='rwgt_53'> +1.5645958e+01 </wgt>
<wgt id='rwgt_54'> +2.4402844e+01 </wgt>
<wgt id='rwgt_55'> +1.9283319e+01 </wgt>
<wgt id='rwgt_56'> +4.1243583e+01 </wgt>
<wgt id='rwgt_57'> +1.7548767e+01 </wgt>
<wgt id='rwgt_58'> +2.7787817e+01 </wgt>
<wgt id='rwgt_59'> +1.5730087e+01 </wgt>
<wgt id='rwgt_60'> +1.7548767e+01 </wgt>
<wgt id='rwgt_61'> +2.7787817e+01 </wgt>
<wgt id='rwgt_62'> +3.6208187e+01 </wgt>
<wgt id='rwgt_63'> +1.5645958e+01 </wgt>
<wgt id='rwgt_64'> +1.9283319e+01 </wgt>
<wgt id='rwgt_65'> +2.4402844e+01 </wgt>
<wgt id='rwgt_66'> +4.1243583e+01 </wgt>
<wgt id='rwgt_67'> +1.6111970e+01 </wgt>
<wgt id='rwgt_68'> +2.1568011e+01 </wgt>
<wgt id='rwgt_69'> +2.1568011e+01 </wgt>
<wgt id='rwgt_70'> +4.6829120e+01 </wgt>
<wgt id='rwgt_71'> +1.6364357e+01 </wgt>
<wgt id='rwgt_72'> +3.1722932e+01 </wgt>
<wgt id='rwgt_73'> +1.9283319e+01 </wgt>
<wgt id='rwgt_74'> +2.4402844e+01 </wgt>
<wgt id='rwgt_75'> +1.7548767e+01 </wgt>
<wgt id='rwgt_76'> +2.7787817e+01 </wgt>
<wgt id='rwgt_77'> +1.6364357e+01 </wgt>
<wgt id='rwgt_78'> +3.1722932e+01 </wgt>
<wgt id='rwgt_79'> +2.1568011e+01 </wgt>
<wgt id='rwgt_80'> +1.9627636e+01 </wgt>
<wgt id='rwgt_81'> +2.4116683e+01 </wgt>
<wgt id='rwgt_82'> +2.4116683e+01 </wgt>
<wgt id='rwgt_83'> +3.0806294e+01 </wgt>
<wgt id='rwgt_84'> +1.8208324e+01 </wgt>
<wgt id='rwgt_85'> +2.7186418e+01 </wgt>
<wgt id='rwgt_86'> +2.1597089e+01 </wgt>
<wgt id='rwgt_87'> +3.4976310e+01 </wgt>
<wgt id='rwgt_88'> +1.7339152e+01 </wgt>
<wgt id='rwgt_89'> +3.0806294e+01 </wgt>
<wgt id='rwgt_90'> +1.9627636e+01 </wgt>
<wgt id='rwgt_91'> +3.9696467e+01 </wgt>
<wgt id='rwgt_92'> +2.1597089e+01 </wgt>
<wgt id='rwgt_93'> +2.7186418e+01 </wgt>
<wgt id='rwgt_94'> +1.8208324e+01 </wgt>
<wgt id='rwgt_95'> +2.1597089e+01 </wgt>
<wgt id='rwgt_96'> +2.7186418e+01 </wgt>
<wgt id='rwgt_97'> +3.4976310e+01 </wgt>
<wgt id='rwgt_98'> +1.7339152e+01 </wgt>
<wgt id='rwgt_99'> +2.4116683e+01 </wgt>
<wgt id='rwgt_100'> +2.4116683e+01 </wgt>
<wgt id='rwgt_101'> +3.9696467e+01 </wgt>
<wgt id='rwgt_102'> +1.7020121e+01 </wgt>
<wgt id='rwgt_103'> +2.7186418e+01 </wgt>
<wgt id='rwgt_104'> +2.1597089e+01 </wgt>
<wgt id='rwgt_105'> +4.4966765e+01 </wgt>
<wgt id='rwgt_106'> +1.9627636e+01 </wgt>
<wgt id='rwgt_107'> +3.0806294e+01 </wgt>
<wgt id='rwgt_108'> +1.7339152e+01 </wgt>
<wgt id='rwgt_109'> +1.9627636e+01 </wgt>
<wgt id='rwgt_110'> +3.0806294e+01 </wgt>
<wgt id='rwgt_111'> +3.9696467e+01 </wgt>
<wgt id='rwgt_112'> +1.7020121e+01 </wgt>
<wgt id='rwgt_113'> +2.1597089e+01 </wgt>
<wgt id='rwgt_114'> +2.7186418e+01 </wgt>
<wgt id='rwgt_115'> +4.4966765e+01 </wgt>
<wgt id='rwgt_116'> +1.7251231e+01 </wgt>
<wgt id='rwgt_117'> +2.4116683e+01 </wgt>
<wgt id='rwgt_118'> +2.4116683e+01 </wgt>
<wgt id='rwgt_119'> +5.0787204e+01 </wgt>
<wgt id='rwgt_120'> +1.8208324e+01 </wgt>
<wgt id='rwgt_121'> +3.4976310e+01 </wgt>
<wgt id='rwgt_122'> +2.1597089e+01 </wgt>
<wgt id='rwgt_123'> +2.7186418e+01 </wgt>
<wgt id='rwgt_124'> +1.9627636e+01 </wgt>
<wgt id='rwgt_125'> +3.0806294e+01 </wgt>
<wgt id='rwgt_126'> +1.8208324e+01 </wgt>
<wgt id='rwgt_127'> +3.4976310e+01 </wgt>
<wgt id='rwgt_128'> +2.4116683e+01 </wgt>
<wgt id='rwgt_129'> +1.6684825e+01 </wgt>
<wgt id='rwgt_130'> +2.0469167e+01 </wgt>
<wgt id='rwgt_131'> +2.0469167e+01 </wgt>
<wgt id='rwgt_132'> +2.6454072e+01 </wgt>
<wgt id='rwgt_133'> +1.5617866e+01 </wgt>
<wgt id='rwgt_134'> +2.3186549e+01 </wgt>
<wgt id='rwgt_135'> +1.8301926e+01 </wgt>
<wgt id='rwgt_136'> +3.0271735e+01 </wgt>
<wgt id='rwgt_137'> +1.5101047e+01 </wgt>
<wgt id='rwgt_138'> +2.6454072e+01 </wgt>
<wgt id='rwgt_139'> +1.6684825e+01 </wgt>
<wgt id='rwgt_140'> +3.4639539e+01 </wgt>
<wgt id='rwgt_141'> +1.8301926e+01 </wgt>
<wgt id='rwgt_142'> +2.3186549e+01 </wgt>
<wgt id='rwgt_143'> +1.5617866e+01 </wgt>
<wgt id='rwgt_144'> +1.8301926e+01 </wgt>
<wgt id='rwgt_145'> +2.3186549e+01 </wgt>
<wgt id='rwgt_146'> +3.0271735e+01 </wgt>
<wgt id='rwgt_147'> +1.5101047e+01 </wgt>
<wgt id='rwgt_148'> +2.0469167e+01 </wgt>
<wgt id='rwgt_149'> +2.0469167e+01 </wgt>
<wgt id='rwgt_150'> +3.4639539e+01 </wgt>
<wgt id='rwgt_151'> +1.5134369e+01 </wgt>
<wgt id='rwgt_152'> +2.3186549e+01 </wgt>
<wgt id='rwgt_153'> +1.8301926e+01 </wgt>
<wgt id='rwgt_154'> +3.9557484e+01 </wgt>
<wgt id='rwgt_155'> +1.6684825e+01 </wgt>
<wgt id='rwgt_156'> +2.6454072e+01 </wgt>
<wgt id='rwgt_157'> +1.5101047e+01 </wgt>
<wgt id='rwgt_158'> +1.6684825e+01 </wgt>
<wgt id='rwgt_159'> +2.6454072e+01 </wgt>
<wgt id='rwgt_160'> +3.4639539e+01 </wgt>
<wgt id='rwgt_161'> +1.5134369e+01 </wgt>
<wgt id='rwgt_162'> +1.8301926e+01 </wgt>
<wgt id='rwgt_163'> +2.3186549e+01 </wgt>
<wgt id='rwgt_164'> +3.9557484e+01 </wgt>
<wgt id='rwgt_165'> +1.5717832e+01 </wgt>
<wgt id='rwgt_166'> +2.0469167e+01 </wgt>
<wgt id='rwgt_167'> +2.0469167e+01 </wgt>
<wgt id='rwgt_168'> +4.5025570e+01 </wgt>
<wgt id='rwgt_169'> +1.5617866e+01 </wgt>
<wgt id='rwgt_170'> +3.0271735e+01 </wgt>
<wgt id='rwgt_171'> +1.8301926e+01 </wgt>
<wgt id='rwgt_172'> +2.3186549e+01 </wgt>
<wgt id='rwgt_173'> +1.6684825e+01 </wgt>
<wgt id='rwgt_174'> +2.6454072e+01 </wgt>
<wgt id='rwgt_175'> +1.5617866e+01 </wgt>
<wgt id='rwgt_176'> +3.0271735e+01 </wgt>
<wgt id='rwgt_177'> +2.0469167e+01 </wgt>
<wgt id='rwgt_178'> +2.0842563e+01 </wgt>
<wgt id='rwgt_179'> +2.5566512e+01 </wgt>
<wgt id='rwgt_180'> +2.5566512e+01 </wgt>
<wgt id='rwgt_181'> +3.2491024e+01 </wgt>
<wgt id='rwgt_182'> +1.9305799e+01 </wgt>
<wgt id='rwgt_183'> +2.8753698e+01 </wgt>
<wgt id='rwgt_184'> +2.2929467e+01 </wgt>
<wgt id='rwgt_185'> +3.6778492e+01 </wgt>
<wgt id='rwgt_186'> +1.8319177e+01 </wgt>
<wgt id='rwgt_187'> +3.2491024e+01 </wgt>
<wgt id='rwgt_188'> +2.0842563e+01 </wgt>
<wgt id='rwgt_189'> +4.1616100e+01 </wgt>
<wgt id='rwgt_190'> +2.2929467e+01 </wgt>
<wgt id='rwgt_191'> +2.8753698e+01 </wgt>
<wgt id='rwgt_192'> +1.9305799e+01 </wgt>
<wgt id='rwgt_193'> +2.2929467e+01 </wgt>
<wgt id='rwgt_194'> +2.8753698e+01 </wgt>
<wgt id='rwgt_195'> +3.6778492e+01 </wgt>
<wgt id='rwgt_196'> +1.8319177e+01 </wgt>
<wgt id='rwgt_197'> +2.5566512e+01 </wgt>
<wgt id='rwgt_198'> +2.5566512e+01 </wgt>
<wgt id='rwgt_199'> +4.1616100e+01 </wgt>
<wgt id='rwgt_200'> +1.7882695e+01 </wgt>
<wgt id='rwgt_201'> +2.8753698e+01 </wgt>
<wgt id='rwgt_202'> +2.2929467e+01 </wgt>
<wgt id='rwgt_203'> +4.7003849e+01 </wgt>
<wgt id='rwgt_204'> +2.0842563e+01 </wgt>
<wgt id='rwgt_205'> +3.2491024e+01 </wgt>
<wgt id='rwgt_206'> +1.8319177e+01 </wgt>
<wgt id='rwgt_207'> +2.0842563e+01 </wgt>
<wgt id='rwgt_208'> +3.2491024e+01 </wgt>
<wgt id='rwgt_209'> +4.1616100e+01 </wgt>
<wgt id='rwgt_210'> +1.7882695e+01 </wgt>
<wgt id='rwgt_211'> +2.2929467e+01 </wgt>
<wgt id='rwgt_212'> +2.8753698e+01 </wgt>
<wgt id='rwgt_213'> +4.7003849e+01 </wgt>
<wgt id='rwgt_214'> +1.7996354e+01 </wgt>
<wgt id='rwgt_215'> +2.5566512e+01 </wgt>
<wgt id='rwgt_216'> +2.5566512e+01 </wgt>
<wgt id='rwgt_217'> +5.2941739e+01 </wgt>
<wgt id='rwgt_218'> +1.9305799e+01 </wgt>
<wgt id='rwgt_219'> +3.6778492e+01 </wgt>
<wgt id='rwgt_220'> +2.2929467e+01 </wgt>
<wgt id='rwgt_221'> +2.8753698e+01 </wgt>
<wgt id='rwgt_222'> +2.0842563e+01 </wgt>
<wgt id='rwgt_223'> +3.2491024e+01 </wgt>
<wgt id='rwgt_224'> +1.9305799e+01 </wgt>
<wgt id='rwgt_225'> +3.6778492e+01 </wgt>
<wgt id='rwgt_226'> +2.5566512e+01 </wgt>
<wgt id='rwgt_227'> +1.5937878e+01 </wgt>
<wgt id='rwgt_228'> +1.9487318e+01 </wgt>
<wgt id='rwgt_229'> +1.9487318e+01 </wgt>
<wgt id='rwgt_230'> +2.5237321e+01 </wgt>
<wgt id='rwgt_231'> +1.4988370e+01 </wgt>
<wgt id='rwgt_232'> +2.2087249e+01 </wgt>
<wgt id='rwgt_233'> +1.7437528e+01 </wgt>
<wgt id='rwgt_234'> +2.8937533e+01 </wgt>
<wgt id='rwgt_235'> +1.4589002e+01 </wgt>
<wgt id='rwgt_236'> +2.5237321e+01 </wgt>
<wgt id='rwgt_237'> +1.5937878e+01 </wgt>
<wgt id='rwgt_238'> +3.3187886e+01 </wgt>
<wgt id='rwgt_239'> +1.7437528e+01 </wgt>
<wgt id='rwgt_240'> +2.2087249e+01 </wgt>
<wgt id='rwgt_241'> +1.4988370e+01 </wgt>
<wgt id='rwgt_242'> +1.7437528e+01 </wgt>
<wgt id='rwgt_243'> +2.2087249e+01 </wgt>
<wgt id='rwgt_244'> +2.8937533e+01 </wgt>
<wgt id='rwgt_245'> +1.4589002e+01 </wgt>
<wgt id='rwgt_246'> +1.9487318e+01 </wgt>
<wgt id='rwgt_247'> +1.9487318e+01 </wgt>
<wgt id='rwgt_248'> +3.3187886e+01 </wgt>
<wgt id='rwgt_249'> +1.4739775e+01 </wgt>
<wgt id='rwgt_250'> +2.2087249e+01 </wgt>
<wgt id='rwgt_251'> +1.7437528e+01 </wgt>
<wgt id='rwgt_252'> +3.7988381e+01 </wgt>
<wgt id='rwgt_253'> +1.5937878e+01 </wgt>
<wgt id='rwgt_254'> +2.5237321e+01 </wgt>
<wgt id='rwgt_255'> +1.4589002e+01 </wgt>
<wgt id='rwgt_256'> +1.5937878e+01 </wgt>
<wgt id='rwgt_257'> +2.5237321e+01 </wgt>
<wgt id='rwgt_258'> +3.3187886e+01 </wgt>
<wgt id='rwgt_259'> +1.4739775e+01 </wgt>
<wgt id='rwgt_260'> +1.7437528e+01 </wgt>
<wgt id='rwgt_261'> +2.2087249e+01 </wgt>
<wgt id='rwgt_262'> +3.7988381e+01 </wgt>
<wgt id='rwgt_263'> +1.5440689e+01 </wgt>
<wgt id='rwgt_264'> +1.9487318e+01 </wgt>
<wgt id='rwgt_265'> +1.9487318e+01 </wgt>
<wgt id='rwgt_266'> +4.3339016e+01 </wgt>
<wgt id='rwgt_267'> +1.4988370e+01 </wgt>
<wgt id='rwgt_268'> +2.8937533e+01 </wgt>
<wgt id='rwgt_269'> +1.7437528e+01 </wgt>
<wgt id='rwgt_270'> +2.2087249e+01 </wgt>
<wgt id='rwgt_271'> +1.5937878e+01 </wgt>
<wgt id='rwgt_272'> +2.5237321e+01 </wgt>
<wgt id='rwgt_273'> +1.4988370e+01 </wgt>
<wgt id='rwgt_274'> +2.8937533e+01 </wgt>
<wgt id='rwgt_275'> +1.9487318e+01 </wgt>
<wgt id='rwgt_276'> +2.2174484e+01 </wgt>
<wgt id='rwgt_277'> +2.7133335e+01 </wgt>
<wgt id='rwgt_278'> +2.7133335e+01 </wgt>
<wgt id='rwgt_279'> +3.4292750e+01 </wgt>
<wgt id='rwgt_280'> +2.0520270e+01 </wgt>
<wgt id='rwgt_281'> +3.0437972e+01 </wgt>
<wgt id='rwgt_282'> +2.4378839e+01 </wgt>
<wgt id='rwgt_283'> +3.8697668e+01 </wgt>
<wgt id='rwgt_284'> +1.9416196e+01 </wgt>
<wgt id='rwgt_285'> +3.4292750e+01 </wgt>
<wgt id='rwgt_286'> +2.2174484e+01 </wgt>
<wgt id='rwgt_287'> +4.3652727e+01 </wgt>
<wgt id='rwgt_288'> +2.4378839e+01 </wgt>
<wgt id='rwgt_289'> +3.0437972e+01 </wgt>
<wgt id='rwgt_290'> +2.0520270e+01 </wgt>
<wgt id='rwgt_291'> +2.4378839e+01 </wgt>
<wgt id='rwgt_292'> +3.0437972e+01 </wgt>
<wgt id='rwgt_293'> +3.8697668e+01 </wgt>
<wgt id='rwgt_294'> +1.9416196e+01 </wgt>
<wgt id='rwgt_295'> +2.7133335e+01 </wgt>
<wgt id='rwgt_296'> +2.7133335e+01 </wgt>
<wgt id='rwgt_297'> +4.3652727e+01 </wgt>
<wgt id='rwgt_298'> +1.8862263e+01 </wgt>
<wgt id='rwgt_299'> +3.0437972e+01 </wgt>
<wgt id='rwgt_300'> +2.4378839e+01 </wgt>
<wgt id='rwgt_301'> +4.9157927e+01 </wgt>
<wgt id='rwgt_302'> +2.2174484e+01 </wgt>
<wgt id='rwgt_303'> +3.4292750e+01 </wgt>
<wgt id='rwgt_304'> +1.9416196e+01 </wgt>
<wgt id='rwgt_305'> +2.2174484e+01 </wgt>
<wgt id='rwgt_306'> +3.4292750e+01 </wgt>
<wgt id='rwgt_307'> +4.3652727e+01 </wgt>
<wgt id='rwgt_308'> +1.8862263e+01 </wgt>
<wgt id='rwgt_309'> +2.4378839e+01 </wgt>
<wgt id='rwgt_310'> +3.0437972e+01 </wgt>
<wgt id='rwgt_311'> +4.9157927e+01 </wgt>
<wgt id='rwgt_312'> +1.8858471e+01 </wgt>
<wgt id='rwgt_313'> +2.7133335e+01 </wgt>
<wgt id='rwgt_314'> +2.7133335e+01 </wgt>
<wgt id='rwgt_315'> +5.5213268e+01 </wgt>
<wgt id='rwgt_316'> +2.0520270e+01 </wgt>
<wgt id='rwgt_317'> +3.8697668e+01 </wgt>
<wgt id='rwgt_318'> +2.4378839e+01 </wgt>
<wgt id='rwgt_319'> +3.0437972e+01 </wgt>
<wgt id='rwgt_320'> +2.2174484e+01 </wgt>
<wgt id='rwgt_321'> +3.4292750e+01 </wgt>
<wgt id='rwgt_322'> +2.0520270e+01 </wgt>
<wgt id='rwgt_323'> +3.8697668e+01 </wgt>
<wgt id='rwgt_324'> +2.7133335e+01 </wgt>
<wgt id='rwgt_325'> +1.8529704e+01 </wgt>
<wgt id='rwgt_326'> +2.2783850e+01 </wgt>
<wgt id='rwgt_327'> +2.2783850e+01 </wgt>
<wgt id='rwgt_328'> +2.9238558e+01 </wgt>
<wgt id='rwgt_329'> +1.7227843e+01 </wgt>
<wgt id='rwgt_330'> +2.5736133e+01 </wgt>
<wgt id='rwgt_331'> +2.0381707e+01 </wgt>
<wgt id='rwgt_332'> +3.3291124e+01 </wgt>
<wgt id='rwgt_333'> +1.6476122e+01 </wgt>
<wgt id='rwgt_334'> +2.9238558e+01 </wgt>
<wgt id='rwgt_335'> +1.8529704e+01 </wgt>
<wgt id='rwgt_336'> +3.7893830e+01 </wgt>
<wgt id='rwgt_337'> +2.0381707e+01 </wgt>
<wgt id='rwgt_338'> +2.5736133e+01 </wgt>
<wgt id='rwgt_339'> +1.7227843e+01 </wgt>
<wgt id='rwgt_340'> +2.0381707e+01 </wgt>
<wgt id='rwgt_341'> +2.5736133e+01 </wgt>
<wgt id='rwgt_342'> +3.3291124e+01 </wgt>
<wgt id='rwgt_343'> +1.6476122e+01 </wgt>
<wgt id='rwgt_344'> +2.2783850e+01 </wgt>
<wgt id='rwgt_345'> +2.2783850e+01 </wgt>
<wgt id='rwgt_346'> +3.7893830e+01 </wgt>
<wgt id='rwgt_347'> +1.6274542e+01 </wgt>
<wgt id='rwgt_348'> +2.5736133e+01 </wgt>
<wgt id='rwgt_349'> +2.0381707e+01 </wgt>
<wgt id='rwgt_350'> +4.3046677e+01 </wgt>
<wgt id='rwgt_351'> +1.8529704e+01 </wgt>
<wgt id='rwgt_352'> +2.9238558e+01 </wgt>
<wgt id='rwgt_353'> +1.6476122e+01 </wgt>
<wgt id='rwgt_354'> +1.8529704e+01 </wgt>
<wgt id='rwgt_355'> +2.9238558e+01 </wgt>
<wgt id='rwgt_356'> +3.7893830e+01 </wgt>
<wgt id='rwgt_357'> +1.6274542e+01 </wgt>
<wgt id='rwgt_358'> +2.0381707e+01 </wgt>
<wgt id='rwgt_359'> +2.5736133e+01 </wgt>
<wgt id='rwgt_360'> +4.3046677e+01 </wgt>
<wgt id='rwgt_361'> +1.6623103e+01 </wgt>
<wgt id='rwgt_362'> +2.2783850e+01 </wgt>
<wgt id='rwgt_363'> +2.2783850e+01 </wgt>
<wgt id='rwgt_364'> +4.8749665e+01 </wgt>
<wgt id='rwgt_365'> +1.7227843e+01 </wgt>
<wgt id='rwgt_366'> +3.3291124e+01 </wgt>
<wgt id='rwgt_367'> +2.0381707e+01 </wgt>
<wgt id='rwgt_368'> +2.5736133e+01 </wgt>
<wgt id='rwgt_369'> +1.8529704e+01 </wgt>
<wgt id='rwgt_370'> +2.9238558e+01 </wgt>
<wgt id='rwgt_371'> +1.7227843e+01 </wgt>
<wgt id='rwgt_372'> +3.3291124e+01 </wgt>
<wgt id='rwgt_373'> +2.2783850e+01 </wgt>
</rwgt>
</event>
<event npLO=" -1 " npNLO=" 1 ">
 8      1 +1.9963618e+01 1.52007450e+01 7.54677110e-03 1.10953860e-01
       21 -1    0    0  503  502 +0.0000000000e+00 +0.0000000000e+00 +5.1508121000e+01 5.1508121000e+01 0.0000000000e+00 0.0000e+00 9.0000e+00
        2 -1    0    0  502    0 +0.0000000000e+00 +0.0000000000e+00 -9.1060782000e+02 9.1060782000e+02 0.0000000000e+00 0.0000e+00 9.0000e+00
       24  2    1    2    0    0 +1.0539159000e+02 -5.9687925000e+01 -5.3310859000e+02 5.5264049000e+02 8.0849949000e+01 0.0000e+00 0.0000e+00
      -15  1    3    3    0    0 +6.4866857000e+01 -4.1299490000e+01 -1.6720169000e+02 1.8403739000e+02 0.0000000000e+00 0.0000e+00 9.0000e+00
       16  1    3    3    0    0 +4.0524734000e+01 -1.8388435000e+01 -3.6590690000e+02 3.6860310000e+02 0.0000000000e+00 0.0000e+00 9.0000e+00
       22  1    1    2    0    0 -8.7610197000e+01 +5.4734923000e+01 -3.0681845000e+02 3.2374222000e+02 0.0000000000e+00 0.0000e+00 9.0000e+00
        1  1    1    2  501    0 -1.5113868000e+01 +9.3497583000e+00 -5.0733446000e+01 5.3756204000e+01 0.0000000000e+00 0.0000e+00 9.0000e+00
       21  1    1    2  503  501 -2.6675264000e+00 -4.3967557000e+00 +3.1560786000e+01 3.1977029000e+01 0.0000000000e+00 0.0000e+00 9.0000e+00
#aMCatNLO 2  0  0  1  6 0.51436328E+01 0.00000000E+00 -9  7  0 0.00000000E+00 0.00000000E+00 0.00000000E+00 0.00000000E+00 0.00000000E+00
<rwgt>
<wgt id='1001'> +1.9964000e+01 </wgt>
<wgt id='1002'> +1.6563000e+01 </wgt>
<wgt id='1003'> +2.4551000e+01 </wgt>
<wgt id='1004'> +2.0002000e+01 </wgt>
<wgt id='1005'> +1.6595000e+01 </wgt>
<wgt id='1006'> +2.4597000e+01 </wgt>
<wgt id='1007'> +1.9719000e+01 </wgt>
<wgt id='1008'> +1.6360000e+01 </wgt>
<wgt id='1009'> +2.4250000e+01 </wgt>
<wgt id='1010'> +1.9964000e+01 </wgt>
<wgt id='1011'> +1.9140000e+01 </wgt>
<wgt id='1012'> +1.9875000e+01 </wgt>
<wgt id='1013'> +2.0180000e+01 </wgt>
<wgt id='1014'> +2.0115000e+01 </wgt>
<wgt id='1015'> +1.9273000e+01 </wgt>
<wgt id='1016'> +2.0019000e+01 </wgt>
<wgt id='1017'> +2.0054000e+01 </wgt>
<wgt id='1018'> +1.9598000e+01 </wgt>
<wgt id='1019'> +1.9909000e+01 </wgt>
<wgt id='1020'> +1.9831000e+01 </wgt>
<wgt id='1021'> +2.0134000e+01 </wgt>
<wgt id='1022'> +2.0336000e+01 </wgt>
<wgt id='1023'> +2.0325000e+01 </wgt>
<wgt id='1024'> +1.9760000e+01 </wgt>
<wgt id='1025'> +1.9852000e+01 </wgt>
<wgt id='1026'> +1.9812000e+01 </wgt>
<wgt id='1027'> +1.9576000e+01 </wgt>
<wgt id='1028'> +1.9453000e+01 </wgt>
<wgt id='1029'> +1.9918000e+01 </wgt>
<wgt id='1030'> +1.9590000e+01 </wgt>
<wgt id='1031'> +2.0281000e+01 </wgt>
<wgt id='1032'> +1.9760000e+01 </wgt>
<wgt id='1033'> +2.1029000e+01 </wgt>
<wgt id='1034'> +1.9828000e+01 </wgt>
<wgt id='1035'> +2.0137000e+01 </wgt>
<wgt id='1036'> +1.9868000e+01 </wgt>
<wgt id='1037'> +1.9539000e+01 </wgt>
<wgt id='1038'> +1.9880000e+01 </wgt>
<wgt id='1039'> +1.9613000e+01 </wgt>
<wgt id='1040'> +2.0081000e+01 </wgt>
<wgt id='1041'> +1.9869000e+01 </wgt>
<wgt id='1042'> +1.9997000e+01 </wgt>
<wgt id='1043'> +2.0245000e+01 </wgt>
<wgt id='1044'> +2.0246000e+01 </wgt>
<wgt id='1045'> +2.0406000e+01 </wgt>
<wgt id='1046'> +2.0305000e+01 </wgt>
<wgt id='1047'> +1.9642000e+01 </wgt>
<wgt id='1048'> +1.9849000e+01 </wgt>
<wgt id='1049'> +1.9508000e+01 </wgt>
<wgt id='1050'> +2.0044000e+01 </wgt>
<wgt id='1051'> +2.0142000e+01 </wgt>
<wgt id='1052'> +2.0369000e+01 </wgt>
<wgt id='1053'> +2.0194000e+01 </wgt>
<wgt id='1054'> +1.9838000e+01 </wgt>
<wgt id='1055'> +2.0096000e+01 </wgt>
<wgt id='1056'> +2.0167000e+01 </wgt>
<wgt id='1057'> +1.9727000e+01 </wgt>
<wgt id='1058'> +1.9629000e+01 </wgt>
<wgt id='1059'> +2.0125000e+01 </wgt>
<wgt id='1060'> +2.0114000e+01 </wgt>
<wgt id='1061'> +2.0194000e+01 </wgt>
<wgt id='1062'> +2.0177000e+01 </wgt>
<wgt id='1063'> +2.0349000e+01 </wgt>
<wgt id='1064'> +1.9921000e+01 </wgt>
<wgt id='1065'> +2.0172000e+01 </wgt>
<wgt id='1066'> +1.9399000e+01 </wgt>
<wgt id='1067'> +2.0477000e+01 </wgt>
<wgt id='1068'> +2.0141000e+01 </wgt>
<wgt id='1069'> +1.9705000e+01 </wgt>
<wgt id='1070'> +1.9997000e+01 </wgt>
<wgt id='1071'> +2.0150000e+01 </wgt>
<wgt id='1072'> +1.9893000e+01 </wgt>
<wgt id='1073'> +2.0592000e+01 </wgt>
<wgt id='1074'> +1.9184000e+01 </wgt>
<wgt id='1075'> +2.0404000e+01 </wgt>
<wgt id='1076'> +1.9790000e+01 </wgt>
<wgt id='1077'> +2.0519000e+01 </wgt>
<wgt id='1078'> +1.9943000e+01 </wgt>
<wgt id='1079'> +1.9819000e+01 </wgt>
<wgt id='1080'> +1.9689000e+01 </wgt>
<wgt id='1081'> +2.0464000e+01 </wgt>
<wgt id='1082'> +2.0103000e+01 </wgt>
<wgt id='1083'> +1.9549000e+01 </wgt>
<wgt id='1084'> +2.0423000e+01 </wgt>
<wgt id='1085'> +1.9875000e+01 </wgt>
<wgt id='1086'> +2.0148000e+01 </wgt>
<wgt id='1087'> +1.9935000e+01 </wgt>
<wgt id='1088'> +2.0440000e+01 </wgt>
<wgt id='1089'> +2.0046000e+01 </wgt>
<wgt id='1090'> +1.9905000e+01 </wgt>
<wgt id='1091'> +2.0114000e+01 </wgt>
<wgt id='1092'> +2.0082000e+01 </wgt>
<wgt id='1093'> +1.9424000e+01 </wgt>
<wgt id='1094'> +1.9896000e+01 </wgt>
<wgt id='1095'> +1.9634000e+01 </wgt>
<wgt id='1096'> +1.9718000e+01 </wgt>
<wgt id='1097'> +2.0100000e+01 </wgt>
<wgt id='1098'> +2.0235000e+01 </wgt>
<wgt id='1099'> +1.9707000e+01 </wgt>
<wgt id='1100'> +1.9827000e+01 </wgt>
<wgt id='1101'> +1.9552000e+01 </wgt>
<wgt id='1102'> +2.0123000e+01 </wgt>
<wgt id='1103'> +1.9588000e+01 </wgt>
<wgt id='1104'> +2.0152000e+01 </wgt>
<wgt id='1105'> +1.9359000e+01 </wgt>
<wgt id='1106'> +2.0100000e+01 </wgt>
<wgt id='1107'> +1.9844000e+01 </wgt>
<wgt id='1108'> +2.0701000e+01 </wgt>
<wgt id='1109'> +2.0177000e+01 </wgt>
<wgt id='1110'> +1.9333000e+01 </wgt>
<wgt id='1111'> +1.9692000e+01 </wgt>
<wgt id='1112'> +2.0159000e+01 </wgt>
<wgt id='rwgt_1'> +2.0111992e+01 </wgt>
<wgt id='rwgt_2'> +2.0314583e+01 </wgt>
<wgt id='rwgt_3'> +2.0012736e+01 </wgt>
<wgt id='rwgt_4'> +2.0417918e+01 </wgt>
<wgt id='rwgt_5'> +2.0522613e+01 </wgt>
<wgt id='rwgt_6'> +1.9914840e+01 </wgt>
<wgt id='rwgt_7'> +1.9999845e+01 </wgt>
<wgt id='rwgt_8'> +2.0431287e+01 </wgt>
<wgt id='rwgt_9'> +1.9793000e+01 </wgt>
<wgt id='rwgt_10'> +2.0655884e+01 </wgt>
<wgt id='rwgt_11'> +1.9592072e+01 </wgt>
<wgt id='rwgt_12'> +2.0886397e+01 </wgt>
<wgt id='rwgt_13'> +1.9999845e+01 </wgt>
<wgt id='rwgt_14'> +2.0431287e+01 </wgt>
<wgt id='rwgt_15'> +1.9793000e+01 </wgt>
<wgt id='rwgt_16'> +2.0655884e+01 </wgt>
<wgt id='rwgt_17'> +1.9592072e+01 </wgt>
<wgt id='rwgt_18'> +2.0886397e+01 </wgt>
<wgt id='rwgt_19'> +2.0215869e+01 </wgt>
<wgt id='rwgt_20'> +2.0210217e+01 </wgt>
<wgt id='rwgt_21'> +2.0220001e+01 </wgt>
<wgt id='rwgt_22'> +2.0208695e+01 </wgt>
<wgt id='rwgt_23'> +2.0225003e+01 </wgt>
<wgt id='rwgt_24'> +2.0208044e+01 </wgt>
<wgt id='rwgt_25'> +2.0236176e+01 </wgt>
<wgt id='rwgt_26'> +2.0194957e+01 </wgt>
<wgt id='rwgt_27'> +2.0265662e+01 </wgt>
<wgt id='rwgt_28'> +2.0183222e+01 </wgt>
<wgt id='rwgt_29'> +2.0301064e+01 </wgt>
<wgt id='rwgt_30'> +2.0177405e+01 </wgt>
<wgt id='rwgt_31'> +1.9698033e+01 </wgt>
<wgt id='rwgt_32'> +2.0111992e+01 </wgt>
<wgt id='rwgt_33'> +2.0111992e+01 </wgt>
<wgt id='rwgt_34'> +2.0549619e+01 </wgt>
<wgt id='rwgt_35'> +1.9499930e+01 </wgt>
<wgt id='rwgt_36'> +2.0327847e+01 </wgt>
<wgt id='rwgt_37'> +1.9902054e+01 </wgt>
<wgt id='rwgt_38'> +2.0777308e+01 </wgt>
<wgt id='rwgt_39'> +1.9307743e+01 </wgt>
<wgt id='rwgt_40'> +2.0549619e+01 </wgt>
<wgt id='rwgt_41'> +1.9698033e+01 </wgt>
<wgt id='rwgt_42'> +2.1010914e+01 </wgt>
<wgt id='rwgt_43'> +1.9902054e+01 </wgt>
<wgt id='rwgt_44'> +2.0327847e+01 </wgt>
<wgt id='rwgt_45'> +1.9499930e+01 </wgt>
<wgt id='rwgt_46'> +1.9902054e+01 </wgt>
<wgt id='rwgt_47'> +2.0327847e+01 </wgt>
<wgt id='rwgt_48'> +2.0777308e+01 </wgt>
<wgt id='rwgt_49'> +1.9307743e+01 </wgt>
<wgt id='rwgt_50'> +2.0111992e+01 </wgt>
<wgt id='rwgt_51'> +2.0111992e+01 </wgt>
<wgt id='rwgt_52'> +2.1010914e+01 </wgt>
<wgt id='rwgt_53'> +1.9121473e+01 </wgt>
<wgt id='rwgt_54'> +2.0327847e+01 </wgt>
<wgt id='rwgt_55'> +1.9902054e+01 </wgt>
<wgt id='rwgt_56'> +2.1250438e+01 </wgt>
<wgt id='rwgt_57'> +1.9698033e+01 </wgt>
<wgt id='rwgt_58'> +2.0549619e+01 </wgt>
<wgt id='rwgt_59'> +1.9307743e+01 </wgt>
<wgt id='rwgt_60'> +1.9698033e+01 </wgt>
<wgt id='rwgt_61'> +2.0549619e+01 </wgt>
<wgt id='rwgt_62'> +2.1010914e+01 </wgt>
<wgt id='rwgt_63'> +1.9121473e+01 </wgt>
<wgt id='rwgt_64'> +1.9902054e+01 </wgt>
<wgt id='rwgt_65'> +2.0327847e+01 </wgt>
<wgt id='rwgt_66'> +2.1250438e+01 </wgt>
<wgt id='rwgt_67'> +1.8941121e+01 </wgt>
<wgt id='rwgt_68'> +2.0111992e+01 </wgt>
<wgt id='rwgt_69'> +2.0111992e+01 </wgt>
<wgt id='rwgt_70'> +2.1495878e+01 </wgt>
<wgt id='rwgt_71'> +1.9499930e+01 </wgt>
<wgt id='rwgt_72'> +2.0777308e+01 </wgt>
<wgt id='rwgt_73'> +1.9902054e+01 </wgt>
<wgt id='rwgt_74'> +2.0327847e+01 </wgt>
<wgt id='rwgt_75'> +1.9698033e+01 </wgt>
<wgt id='rwgt_76'> +2.0549619e+01 </wgt>
<wgt id='rwgt_77'> +1.9499930e+01 </wgt>
<wgt id='rwgt_78'> +2.0777308e+01 </wgt>
<wgt id='rwgt_79'> +2.0111992e+01 </wgt>
<wgt id='rwgt_80'> +1.9889327e+01 </wgt>
<wgt id='rwgt_81'> +2.0314583e+01 </wgt>
<wgt id='rwgt_82'> +2.0314583e+01 </wgt>
<wgt id='rwgt_83'> +2.0763508e+01 </wgt>
<wgt id='rwgt_84'> +1.9685574e+01 </wgt>
<wgt id='rwgt_85'> +2.0536087e+01 </wgt>
<wgt id='rwgt_86'> +2.0098996e+01 </wgt>
<wgt id='rwgt_87'> +2.0996846e+01 </wgt>
<wgt id='rwgt_88'> +1.9487738e+01 </wgt>
<wgt id='rwgt_89'> +2.0763508e+01 </wgt>
<wgt id='rwgt_90'> +1.9889327e+01 </wgt>
<wgt id='rwgt_91'> +2.1236101e+01 </wgt>
<wgt id='rwgt_92'> +2.0098996e+01 </wgt>
<wgt id='rwgt_93'> +2.0536087e+01 </wgt>
<wgt id='rwgt_94'> +1.9685574e+01 </wgt>
<wgt id='rwgt_95'> +2.0098996e+01 </wgt>
<wgt id='rwgt_96'> +2.0536087e+01 </wgt>
<wgt id='rwgt_97'> +2.0996846e+01 </wgt>
<wgt id='rwgt_98'> +1.9487738e+01 </wgt>
<wgt id='rwgt_99'> +2.0314583e+01 </wgt>
<wgt id='rwgt_100'> +2.0314583e+01 </wgt>
<wgt id='rwgt_101'> +2.1236101e+01 </wgt>
<wgt id='rwgt_102'> +1.9295820e+01 </wgt>
<wgt id='rwgt_103'> +2.0536087e+01 </wgt>
<wgt id='rwgt_104'> +2.0098996e+01 </wgt>
<wgt id='rwgt_105'> +2.1481273e+01 </wgt>
<wgt id='rwgt_106'> +1.9889327e+01 </wgt>
<wgt id='rwgt_107'> +2.0763508e+01 </wgt>
<wgt id='rwgt_108'> +1.9487738e+01 </wgt>
<wgt id='rwgt_109'> +1.9889327e+01 </wgt>
<wgt id='rwgt_110'> +2.0763508e+01 </wgt>
<wgt id='rwgt_111'> +2.1236101e+01 </wgt>
<wgt id='rwgt_112'> +1.9295820e+01 </wgt>
<wgt id='rwgt_113'> +2.0098996e+01 </wgt>
<wgt id='rwgt_114'> +2.0536087e+01 </wgt>
<wgt id='rwgt_115'> +2.1481273e+01 </wgt>
<wgt id='rwgt_116'> +1.9109819e+01 </wgt>
<wgt id='rwgt_117'> +2.0314583e+01 </wgt>
<wgt id='rwgt_118'> +2.0314583e+01 </wgt>
<wgt id='rwgt_119'> +2.1732362e+01 </wgt>
<wgt id='rwgt_120'> +1.9685574e+01 </wgt>
<wgt id='rwgt_121'> +2.0996846e+01 </wgt>
<wgt id='rwgt_122'> +2.0098996e+01 </wgt>
<wgt id='rwgt_123'> +2.0536087e+01 </wgt>
<wgt id='rwgt_124'> +1.9889327e+01 </wgt>
<wgt id='rwgt_125'> +2.0763508e+01 </wgt>
<wgt id='rwgt_126'> +1.9685574e+01 </wgt>
<wgt id='rwgt_127'> +2.0996846e+01 </wgt>
<wgt id='rwgt_128'> +2.0314583e+01 </wgt>
<wgt id='rwgt_129'> +1.9604426e+01 </wgt>
<wgt id='rwgt_130'> +2.0012736e+01 </wgt>
<wgt id='rwgt_131'> +2.0012736e+01 </wgt>
<wgt id='rwgt_132'> +2.0444714e+01 </wgt>
<wgt id='rwgt_133'> +1.9409147e+01 </wgt>
<wgt id='rwgt_134'> +2.0225767e+01 </wgt>
<wgt id='rwgt_135'> +1.9805623e+01 </wgt>
<wgt id='rwgt_136'> +2.0669579e+01 </wgt>
<wgt id='rwgt_137'> +1.9219784e+01 </wgt>
<wgt id='rwgt_138'> +2.0444714e+01 </wgt>
<wgt id='rwgt_139'> +1.9604426e+01 </wgt>
<wgt id='rwgt_140'> +2.0900361e+01 </wgt>
<wgt id='rwgt_141'> +1.9805623e+01 </wgt>
<wgt id='rwgt_142'> +2.0225767e+01 </wgt>
<wgt id='rwgt_143'> +1.9409147e+01 </wgt>
<wgt id='rwgt_144'> +1.9805623e+01 </wgt>
<wgt id='rwgt_145'> +2.0225767e+01 </wgt>
<wgt id='rwgt_146'> +2.0669579e+01 </wgt>
<wgt id='rwgt_147'> +1.9219784e+01 </wgt>
<wgt id='rwgt_148'> +2.0012736e+01 </wgt>
<wgt id='rwgt_149'> +2.0012736e+01 </wgt>
<wgt id='rwgt_150'> +2.0900361e+01 </wgt>
<wgt id='rwgt_151'> +1.9036339e+01 </wgt>
<wgt id='rwgt_152'> +2.0225767e+01 </wgt>
<wgt id='rwgt_153'> +1.9805623e+01 </wgt>
<wgt id='rwgt_154'> +2.1137060e+01 </wgt>
<wgt id='rwgt_155'> +1.9604426e+01 </wgt>
<wgt id='rwgt_156'> +2.0444714e+01 </wgt>
<wgt id='rwgt_157'> +1.9219784e+01 </wgt>
<wgt id='rwgt_158'> +1.9604426e+01 </wgt>
<wgt id='rwgt_159'> +2.0444714e+01 </wgt>
<wgt id='rwgt_160'> +2.0900361e+01 </wgt>
<wgt id='rwgt_161'> +1.9036339e+01 </wgt>
<wgt id='rwgt_162'> +1.9805623e+01 </wgt>
<wgt id='rwgt_163'> +2.0225767e+01 </wgt>
<wgt id='rwgt_164'> +2.1137060e+01 </wgt>
<wgt id='rwgt_165'> +1.8858811e+01 </wgt>
<wgt id='rwgt_166'> +2.0012736e+01 </wgt>
<wgt id='rwgt_167'> +2.0012736e+01 </wgt>
<wgt id='rwgt_168'> +2.1379675e+01 </wgt>
<wgt id='rwgt_169'> +1.9409147e+01 </wgt>
<wgt id='rwgt_170'> +2.0669579e+01 </wgt>
<wgt id='rwgt_171'> +1.9805623e+01 </wgt>
<wgt id='rwgt_172'> +2.0225767e+01 </wgt>
<wgt id='rwgt_173'> +1.9604426e+01 </wgt>
<wgt id='rwgt_174'> +2.0444714e+01 </wgt>
<wgt id='rwgt_175'> +1.9409147e+01 </wgt>
<wgt id='rwgt_176'> +2.0669579e+01 </wgt>
<wgt id='rwgt_177'> +2.0012736e+01 </wgt>
<wgt id='rwgt_178'> +1.9987013e+01 </wgt>
<wgt id='rwgt_179'> +2.0417918e+01 </wgt>
<wgt id='rwgt_180'> +2.0417918e+01 </wgt>
<wgt id='rwgt_181'> +2.0872492e+01 </wgt>
<wgt id='rwgt_182'> +1.9780436e+01 </wgt>
<wgt id='rwgt_183'> +2.0642246e+01 </wgt>
<wgt id='rwgt_184'> +2.0199507e+01 </wgt>
<wgt id='rwgt_185'> +2.1108654e+01 </wgt>
<wgt id='rwgt_186'> +1.9579776e+01 </wgt>
<wgt id='rwgt_187'> +2.0872492e+01 </wgt>
<wgt id='rwgt_188'> +1.9987013e+01 </wgt>
<wgt id='rwgt_189'> +2.1350733e+01 </wgt>
<wgt id='rwgt_190'> +2.0199507e+01 </wgt>
<wgt id='rwgt_191'> +2.0642246e+01 </wgt>
<wgt id='rwgt_192'> +1.9780436e+01 </wgt>
<wgt id='rwgt_193'> +2.0199507e+01 </wgt>
<wgt id='rwgt_194'> +2.0642246e+01 </wgt>
<wgt id='rwgt_195'> +2.1108654e+01 </wgt>
<wgt id='rwgt_196'> +1.9579776e+01 </wgt>
<wgt id='rwgt_197'> +2.0417918e+01 </wgt>
<wgt id='rwgt_198'> +2.0417918e+01 </wgt>
<wgt id='rwgt_199'> +2.1350733e+01 </wgt>
<wgt id='rwgt_200'> +1.9385033e+01 </wgt>
<wgt id='rwgt_201'> +2.0642246e+01 </wgt>
<wgt id='rwgt_202'> +2.0199507e+01 </wgt>
<wgt id='rwgt_203'> +2.1598730e+01 </wgt>
<wgt id='rwgt_204'> +1.9987013e+01 </wgt>
<wgt id='rwgt_205'> +2.0872492e+01 </wgt>
<wgt id='rwgt_206'> +1.9579776e+01 </wgt>
<wgt id='rwgt_207'> +1.9987013e+01 </wgt>
<wgt id='rwgt_208'> +2.0872492e+01 </wgt>
<wgt id='rwgt_209'> +2.1350733e+01 </wgt>
<wgt id='rwgt_210'> +1.9385033e+01 </wgt>
<wgt id='rwgt_211'> +2.0199507e+01 </wgt>
<wgt id='rwgt_212'> +2.0642246e+01 </wgt>
<wgt id='rwgt_213'> +2.1598730e+01 </wgt>
<wgt id='rwgt_214'> +1.9196207e+01 </wgt>
<wgt id='rwgt_215'> +2.0417918e+01 </wgt>
<wgt id='rwgt_216'> +2.0417918e+01 </wgt>
<wgt id='rwgt_217'> +2.1852643e+01 </wgt>
<wgt id='rwgt_218'> +1.9780436e+01 </wgt>
<wgt id='rwgt_219'> +2.1108654e+01 </wgt>
<wgt id='rwgt_220'> +2.0199507e+01 </wgt>
<wgt id='rwgt_221'> +2.0642246e+01 </wgt>
<wgt id='rwgt_222'> +1.9987013e+01 </wgt>
<wgt id='rwgt_223'> +2.0872492e+01 </wgt>
<wgt id='rwgt_224'> +1.9780436e+01 </wgt>
<wgt id='rwgt_225'> +2.1108654e+01 </wgt>
<wgt id='rwgt_226'> +2.0417918e+01 </wgt>
<wgt id='rwgt_227'> +1.9512179e+01 </wgt>
<wgt id='rwgt_228'> +1.9914840e+01 </wgt>
<wgt id='rwgt_229'> +1.9914840e+01 </wgt>
<wgt id='rwgt_230'> +2.0341169e+01 </wgt>
<wgt id='rwgt_231'> +1.9319724e+01 </wgt>
<wgt id='rwgt_232'> +2.0125046e+01 </wgt>
<wgt id='rwgt_233'> +1.9710551e+01 </wgt>
<wgt id='rwgt_234'> +2.0563209e+01 </wgt>
<wgt id='rwgt_235'> +1.9133186e+01 </wgt>
<wgt id='rwgt_236'> +2.0341169e+01 </wgt>
<wgt id='rwgt_237'> +1.9512179e+01 </wgt>
<wgt id='rwgt_238'> +2.0791167e+01 </wgt>
<wgt id='rwgt_239'> +1.9710551e+01 </wgt>
<wgt id='rwgt_240'> +2.0125046e+01 </wgt>
<wgt id='rwgt_241'> +1.9319724e+01 </wgt>
<wgt id='rwgt_242'> +1.9710551e+01 </wgt>
<wgt id='rwgt_243'> +2.0125046e+01 </wgt>
<wgt id='rwgt_244'> +2.0563209e+01 </wgt>
<wgt id='rwgt_245'> +1.9133186e+01 </wgt>
<wgt id='rwgt_246'> +1.9914840e+01 </wgt>
<wgt id='rwgt_247'> +1.9914840e+01 </wgt>
<wgt id='rwgt_248'> +2.0791167e+01 </wgt>
<wgt id='rwgt_249'> +1.8952565e+01 </wgt>
<wgt id='rwgt_250'> +2.0125046e+01 </wgt>
<wgt id='rwgt_251'> +1.9710551e+01 </wgt>
<wgt id='rwgt_252'> +2.1025041e+01 </wgt>
<wgt id='rwgt_253'> +1.9512179e+01 </wgt>
<wgt id='rwgt_254'> +2.0341169e+01 </wgt>
<wgt id='rwgt_255'> +1.9133186e+01 </wgt>
<wgt id='rwgt_256'> +1.9512179e+01 </wgt>
<wgt id='rwgt_257'> +2.0341169e+01 </wgt>
<wgt id='rwgt_258'> +2.0791167e+01 </wgt>
<wgt id='rwgt_259'> +1.8952565e+01 </wgt>
<wgt id='rwgt_260'> +1.9710551e+01 </wgt>
<wgt id='rwgt_261'> +2.0125046e+01 </wgt>
<wgt id='rwgt_262'> +2.1025041e+01 </wgt>
<wgt id='rwgt_263'> +1.8777861e+01 </wgt>
<wgt id='rwgt_264'> +1.9914840e+01 </wgt>
<wgt id='rwgt_265'> +1.9914840e+01 </wgt>
<wgt id='rwgt_266'> +2.1264833e+01 </wgt>
<wgt id='rwgt_267'> +1.9319724e+01 </wgt>
<wgt id='rwgt_268'> +2.0563209e+01 </wgt>
<wgt id='rwgt_269'> +1.9710551e+01 </wgt>
<wgt id='rwgt_270'> +2.0125046e+01 </wgt>
<wgt id='rwgt_271'> +1.9512179e+01 </wgt>
<wgt id='rwgt_272'> +2.0341169e+01 </wgt>
<wgt id='rwgt_273'> +1.9319724e+01 </wgt>
<wgt id='rwgt_274'> +2.0563209e+01 </wgt>
<wgt id='rwgt_275'> +1.9914840e+01 </wgt>
<wgt id='rwgt_276'> +2.0086059e+01 </wgt>
<wgt id='rwgt_277'> +2.0522613e+01 </wgt>
<wgt id='rwgt_278'> +2.0522613e+01 </wgt>
<wgt id='rwgt_279'> +2.0982835e+01 </wgt>
<wgt id='rwgt_280'> +1.9876657e+01 </wgt>
<wgt id='rwgt_281'> +2.0749765e+01 </wgt>
<wgt id='rwgt_282'> +2.0301377e+01 </wgt>
<wgt id='rwgt_283'> +2.1221822e+01 </wgt>
<wgt id='rwgt_284'> +1.9673173e+01 </wgt>
<wgt id='rwgt_285'> +2.0982835e+01 </wgt>
<wgt id='rwgt_286'> +2.0086059e+01 </wgt>
<wgt id='rwgt_287'> +2.1466726e+01 </wgt>
<wgt id='rwgt_288'> +2.0301377e+01 </wgt>
<wgt id='rwgt_289'> +2.0749765e+01 </wgt>
<wgt id='rwgt_290'> +1.9876657e+01 </wgt>
<wgt id='rwgt_291'> +2.0301377e+01 </wgt>
<wgt id='rwgt_292'> +2.0749765e+01 </wgt>
<wgt id='rwgt_293'> +2.1221822e+01 </wgt>
<wgt id='rwgt_294'> +1.9673173e+01 </wgt>
<wgt id='rwgt_295'> +2.0522613e+01 </wgt>
<wgt id='rwgt_296'> +2.0522613e+01 </wgt>
<wgt id='rwgt_297'> +2.1466726e+01 </wgt>
<wgt id='rwgt_298'> +1.9475605e+01 </wgt>
<wgt id='rwgt_299'> +2.0749765e+01 </wgt>
<wgt id='rwgt_300'> +2.0301377e+01 </wgt>
<wgt id='rwgt_301'> +2.1717547e+01 </wgt>
<wgt id='rwgt_302'> +2.0086059e+01 </wgt>
<wgt id='rwgt_303'> +2.0982835e+01 </wgt>
<wgt id='rwgt_304'> +1.9673173e+01 </wgt>
<wgt id='rwgt_305'> +2.0086059e+01 </wgt>
<wgt id='rwgt_306'> +2.0982835e+01 </wgt>
<wgt id='rwgt_307'> +2.1466726e+01 </wgt>
<wgt id='rwgt_308'> +1.9475605e+01 </wgt>
<wgt id='rwgt_309'> +2.0301377e+01 </wgt>
<wgt id='rwgt_310'> +2.0749765e+01 </wgt>
<wgt id='rwgt_311'> +2.1717547e+01 </wgt>
<wgt id='rwgt_312'> +1.9283955e+01 </wgt>
<wgt id='rwgt_313'> +2.0522613e+01 </wgt>
<wgt id='rwgt_314'> +2.0522613e+01 </wgt>
<wgt id='rwgt_315'> +2.1974284e+01 </wgt>
<wgt id='rwgt_316'> +1.9876657e+01 </wgt>
<wgt id='rwgt_317'> +2.1221822e+01 </wgt>
<wgt id='rwgt_318'> +2.0301377e+01 </wgt>
<wgt id='rwgt_319'> +2.0749765e+01 </wgt>
<wgt id='rwgt_320'> +2.0086059e+01 </wgt>
<wgt id='rwgt_321'> +2.0982835e+01 </wgt>
<wgt id='rwgt_322'> +1.9876657e+01 </wgt>
<wgt id='rwgt_323'> +2.1221822e+01 </wgt>
<wgt id='rwgt_324'> +2.0522613e+01 </wgt>
<wgt id='rwgt_325'> +1.9793000e+01 </wgt>
<wgt id='rwgt_326'> +2.0212608e+01 </wgt>
<wgt id='rwgt_327'> +2.0212608e+01 </wgt>
<wgt id='rwgt_328'> +2.0655884e+01 </wgt>
<wgt id='rwgt_329'> +1.9592072e+01 </wgt>
<wgt id='rwgt_330'> +2.0431287e+01 </wgt>
<wgt id='rwgt_331'> +1.9999845e+01 </wgt>
<wgt id='rwgt_332'> +2.0886397e+01 </wgt>
<wgt id='rwgt_333'> +1.9397061e+01 </wgt>
<wgt id='rwgt_334'> +2.0655884e+01 </wgt>
<wgt id='rwgt_335'> +1.9793000e+01 </wgt>
<wgt id='rwgt_336'> +2.1122828e+01 </wgt>
<wgt id='rwgt_337'> +1.9999845e+01 </wgt>
<wgt id='rwgt_338'> +2.0431287e+01 </wgt>
<wgt id='rwgt_339'> +1.9592072e+01 </wgt>
<wgt id='rwgt_340'> +1.9999845e+01 </wgt>
<wgt id='rwgt_341'> +2.0431287e+01 </wgt>
<wgt id='rwgt_342'> +2.0886397e+01 </wgt>
<wgt id='rwgt_343'> +1.9397061e+01 </wgt>
<wgt id='rwgt_344'> +2.0212608e+01 </wgt>
<wgt id='rwgt_345'> +2.0212608e+01 </wgt>
<wgt id='rwgt_346'> +2.1122828e+01 </wgt>
<wgt id='rwgt_347'> +1.9207967e+01 </wgt>
<wgt id='rwgt_348'> +2.0431287e+01 </wgt>
<wgt id='rwgt_349'> +1.9999845e+01 </wgt>
<wgt id='rwgt_350'> +2.1365175e+01 </wgt>
<wgt id='rwgt_351'> +1.9793000e+01 </wgt>
<wgt id='rwgt_352'> +2.0655884e+01 </wgt>
<wgt id='rwgt_353'> +1.9397061e+01 </wgt>
<wgt id='rwgt_354'> +1.9793000e+01 </wgt>
<wgt id='rwgt_355'> +2.0655884e+01 </wgt>
<wgt id='rwgt_356'> +2.1122828e+01 </wgt>
<wgt id='rwgt_357'> +1.9207967e+01 </wgt>
<wgt id='rwgt_358'> +1.9999845e+01 </wgt>
<wgt id='rwgt_359'> +2.0431287e+01 </wgt>
<wgt id='rwgt_360'> +2.1365175e+01 </wgt>
<wgt id='rwgt_361'> +1.9024790e+01 </wgt>
<wgt id='rwgt_362'> +2.0212608e+01 </wgt>
<wgt id='rwgt_363'> +2.0212608e+01 </wgt>
<wgt id='rwgt_364'> +2.1613440e+01 </wgt>
<wgt id='rwgt_365'> +1.9592072e+01 </wgt>
<wgt id='rwgt_366'> +2.0886397e+01 </wgt>
<wgt id='rwgt_367'> +1.9999845e+01 </wgt>
<wgt id='rwgt_368'> +2.0431287e+01 </wgt>
<wgt id='rwgt_369'> +1.9793000e+01 </wgt>
<wgt id='rwgt_370'> +2.0655884e+01 </wgt>
<wgt id='rwgt_371'> +1.9592072e+01 </wgt>
<wgt id='rwgt_372'> +2.0886397e+01 </wgt>
<wgt id='rwgt_373'> +2.0212608e+01 </wgt>
</rwgt>
</event>
<event npLO=" -1 " npNLO=" 1 ">
 8      1 +1.9963618e+01 7.60078820e+01 7.54677110e-03 1.20542530e-01
        1 -1    0    0  503    0 +0.0000000000e+00 +0.0000000000e+00 +1.4393062000e+02 1.4393062000e+02 0.0000000000e+00 0.0000e+00 9.0000e+00
       21 -1    0    0  501  502 +0.0000000000e+00 +0.0000000000e+00 -8.5226895000e+01 8.5226895000e+01 0.0000000000e+00 0.0000e+00 9.0000e+00
      -24  2    1    2    0    0 +7.4063535000e+01 +9.7192474000e+00 +7.2199316000e+01 1.3133679000e+02 8.0353843000e+01 0.0000e+00 0.0000e+00
       11  1    3    3    0    0 +5.6968440000e+00 +1.5587899000e+00 +2.4424259000e+00 6.3913458000e+00 0.0000000000e+00 0.0000e+00 9.0000e+00
      -12  1    3    3    0    0 -1.5327118000e+01 -7.6243469000e-01 +2.5727438000e+01 2.9956685000e+01 0.0000000000e+00 0.0000e+00 9.0000e+00
       22  1    3    3    0    0 +8.3693809000e+01 +8.9228922000e+00 +4.4029451000e+01 9.4988759000e+01 0.0000000000e+00 0.0000e+00 9.0000e+00
        2  1    1    2  501    0 -8.0694779000e+01 -2.9429877000e+00 -2.3439159000e+01 8.4081524000e+01 0.0000000000e+00 0.0000e+00 9.0000e+00
       21  1    1    2  503  502 +6.6312438000e+00 -6.7762597000e+00 +9.9435673000e+00 1.3739200000e+01 0.0000000000e+00 0.0000e+00 9.0000e+00
#aMCatNLO 2  0  0  1  2 0.10687434E+02 0.00000000E+00 -9  7  0 0.00000000E+00 0.00000000E+00 0.00000000E+00 0.00000000E+00 0.00000000E+00
<rwgt>
<wgt id='1001'> +1.9964000e+01 </wgt>
<wgt id='1002'> +1.6301000e+01 </wgt>
<wgt id='1003'> +2.5041000e+01 </wgt>
<wgt id='1004'> +2.0607000e+01 </wgt>
<wgt id='1005'> +1.6826000e+01 </wgt>
<wgt id='1006'> +2.5848000e+01 </wgt>
<wgt id='1007'> +1.9030000e+01 </wgt>
<wgt id='1008'> +1.5539000e+01 </wgt>
<wgt id='1009'> +2.3869000e+01 </wgt>
<wgt id='1010'> +1.9964000e+01 </wgt>
<wgt id='1011'> +1.8515000e+01 </wgt>
<wgt id='1012'> +2.0531000e+01 </wgt>
<wgt id='1013'> +1.9731000e+01 </wgt>
<wgt id='1014'> +2.0087000e+01 </wgt>
<wgt id='1015'> +1.7492000e+01 </wgt>
<wgt id='1016'> +1.9576000e+01 </wgt>
<wgt id='1017'> +2.0251000e+01 </wgt>
<wgt id='1018'> +1.9564000e+01 </wgt>
<wgt id='1019'> +1.9894000e+01 </wgt>
<wgt id='1020'> +1.9731000e+01 </wgt>
<wgt id='1021'> +1.9962000e+01 </wgt>
<wgt id='1022'> +2.0112000e+01 </wgt>
<wgt id='1023'> +2.0181000e+01 </wgt>
<wgt id='1024'> +1.9759000e+01 </wgt>
<wgt id='1025'> +2.0043000e+01 </wgt>
<wgt id='1026'> +1.9552000e+01 </wgt>
<wgt id='1027'> +1.9594000e+01 </wgt>
<wgt id='1028'> +1.9198000e+01 </wgt>
<wgt id='1029'> +2.0380000e+01 </wgt>
<wgt id='1030'> +2.0018000e+01 </wgt>
<wgt id='1031'> +2.0720000e+01 </wgt>
<wgt id='1032'> +1.9959000e+01 </wgt>
<wgt id='1033'> +2.0881000e+01 </wgt>
<wgt id='1034'> +1.9810000e+01 </wgt>
<wgt id='1035'> +2.0427000e+01 </wgt>
<wgt id='1036'> +1.9371000e+01 </wgt>
<wgt id='1037'> +1.9685000e+01 </wgt>
<wgt id='1038'> +2.0384000e+01 </wgt>
<wgt id='1039'> +1.9666000e+01 </wgt>
<wgt id='1040'> +2.0196000e+01 </wgt>
<wgt id='1041'> +1.9990000e+01 </wgt>
<wgt id='1042'> +1.9305000e+01 </wgt>
<wgt id='1043'> +2.0505000e+01 </wgt>
<wgt id='1044'> +1.9769000e+01 </wgt>
<wgt id='1045'> +2.0381000e+01 </wgt>
<wgt id='1046'> +2.0109000e+01 </wgt>
<wgt id='1047'> +2.0037000e+01 </wgt>
<wgt id='1048'> +1.9370000e+01 </wgt>
<wgt id='1049'> +1.9708000e+01 </wgt>
<wgt id='1050'> +2.0271000e+01 </wgt>
<wgt id='1051'> +2.0764000e+01 </wgt>
<wgt id='1052'> +2.0572000e+01 </wgt>
<wgt id='1053'> +1.9964000e+01 </wgt>
<wgt id='1054'> +1.9555000e+01 </wgt>
<wgt id='1055'> +2.0179000e+01 </wgt>
<wgt id='1056'> +2.0258000e+01 </wgt>
<wgt id='1057'> +1.9743000e+01 </wgt>
<wgt id='1058'> +1.9809000e+01 </wgt>
<wgt id='1059'> +2.0086000e+01 </wgt>
<wgt id='1060'> +2.0146000e+01 </wgt>
<wgt id='1061'> +2.0541000e+01 </wgt>
<wgt id='1062'> +1.9488000e+01 </wgt>
<wgt id='1063'> +1.9893000e+01 </wgt>
<wgt id='1064'> +2.0137000e+01 </wgt>
<wgt id='1065'> +1.9837000e+01 </wgt>
<wgt id='1066'> +1.9354000e+01 </wgt>
<wgt id='1067'> +2.0864000e+01 </wgt>
<wgt id='1068'> +1.9841000e+01 </wgt>
<wgt id='1069'> +1.9905000e+01 </wgt>
<wgt id='1070'> +1.9848000e+01 </wgt>
<wgt id='1071'> +2.0222000e+01 </wgt>
<wgt id='1072'> +2.0255000e+01 </wgt>
<wgt id='1073'> +2.0840000e+01 </wgt>
<wgt id='1074'> +1.9682000e+01 </wgt>
<wgt id='1075'> +2.0594000e+01 </wgt>
<wgt id='1076'> +1.9845000e+01 </wgt>
<wgt id='1077'> +2.0253000e+01 </wgt>
<wgt id='1078'> +1.9903000e+01 </wgt>
<wgt id='1079'> +1.9846000e+01 </wgt>
<wgt id='1080'> +1.9703000e+01 </wgt>
<wgt id='1081'> +2.0224000e+01 </wgt>
<wgt id='1082'> +1.9360000e+01 </wgt>
<wgt id='1083'> +1.8741000e+01 </wgt>
<wgt id='1084'> +1.9905000e+01 </wgt>
<wgt id='1085'> +2.0534000e+01 </wgt>
<wgt id='1086'> +1.9085000e+01 </wgt>
<wgt id='1087'> +1.9904000e+01 </wgt>
<wgt id='1088'> +2.0467000e+01 </wgt>
<wgt id='1089'> +1.9909000e+01 </wgt>
<wgt id='1090'> +1.9793000e+01 </wgt>
<wgt id='1091'> +2.0136000e+01 </wgt>
<wgt id='1092'> +2.0322000e+01 </wgt>
<wgt id='1093'> +1.9703000e+01 </wgt>
<wgt id='1094'> +2.0136000e+01 </wgt>
<wgt id='1095'> +2.0018000e+01 </wgt>
<wgt id='1096'> +2.0183000e+01 </wgt>
<wgt id='1097'> +1.9958000e+01 </wgt>
<wgt id='1098'> +2.0343000e+01 </wgt>
<wgt id='1099'> +2.0244000e+01 </wgt>
<wgt id='1100'> +2.0129000e+01 </wgt>
<wgt id='1101'> +2.0539000e+01 </wgt>
<wgt id='1102'> +1.9797000e+01 </wgt>
<wgt id='1103'> +1.9765000e+01 </wgt>
<wgt id='1104'> +2.0351000e+01 </wgt>
<wgt id='1105'> +1.9443000e+01 </wgt>
<wgt id='1106'> +2.0274000e+01 </wgt>
<wgt id='1107'> +2.0123000e+01 </wgt>
<wgt id='1108'> +2.0340000e+01 </wgt>
<wgt id='1109'> +2.0498000e+01 </wgt>
<wgt id='1110'> +1.9613000e+01 </wgt>
<wgt id='1111'> +1.9654000e+01 </wgt>
<wgt id='1112'> +2.0221000e+01 </wgt>
<wgt id='rwgt_1'> +1.9963266e+01 </wgt>
<wgt id='rwgt_2'> +1.9962798e+01 </wgt>
<wgt id='rwgt_3'> +1.9963501e+01 </wgt>
<wgt id='rwgt_4'> +1.9962565e+01 </wgt>
<wgt id='rwgt_5'> +1.9962332e+01 </wgt>
<wgt id='rwgt_6'> +1.9963735e+01 </wgt>
<wgt id='rwgt_7'> +1.9977801e+01 </wgt>
<wgt id='rwgt_8'> +1.9948281e+01 </wgt>
<wgt id='rwgt_9'> +1.9992587e+01 </wgt>
<wgt id='rwgt_10'> +1.9933547e+01 </wgt>
<wgt id='rwgt_11'> +2.0007391e+01 </wgt>
<wgt id='rwgt_12'> +1.9918830e+01 </wgt>
<wgt id='rwgt_13'> +1.9977801e+01 </wgt>
<wgt id='rwgt_14'> +1.9948281e+01 </wgt>
<wgt id='rwgt_15'> +1.9992587e+01 </wgt>
<wgt id='rwgt_16'> +1.9933547e+01 </wgt>
<wgt id='rwgt_17'> +2.0007391e+01 </wgt>
<wgt id='rwgt_18'> +1.9918830e+01 </wgt>
<wgt id='rwgt_19'> +1.9963196e+01 </wgt>
<wgt id='rwgt_20'> +1.9962869e+01 </wgt>
<wgt id='rwgt_21'> +1.9963359e+01 </wgt>
<wgt id='rwgt_22'> +1.9962706e+01 </wgt>
<wgt id='rwgt_23'> +1.9963523e+01 </wgt>
<wgt id='rwgt_24'> +1.9962543e+01 </wgt>
<wgt id='rwgt_25'> +1.9963795e+01 </wgt>
<wgt id='rwgt_26'> +1.9962287e+01 </wgt>
<wgt id='rwgt_27'> +1.9964575e+01 </wgt>
<wgt id='rwgt_28'> +1.9961559e+01 </wgt>
<wgt id='rwgt_29'> +1.9965372e+01 </wgt>
<wgt id='rwgt_30'> +1.9960848e+01 </wgt>
<wgt id='rwgt_31'> +1.9992825e+01 </wgt>
<wgt id='rwgt_32'> +1.9963266e+01 </wgt>
<wgt id='rwgt_33'> +1.9963266e+01 </wgt>
<wgt id='rwgt_34'> +1.9933777e+01 </wgt>
<wgt id='rwgt_35'> +2.0007631e+01 </wgt>
<wgt id='rwgt_36'> +1.9948513e+01 </wgt>
<wgt id='rwgt_37'> +1.9978037e+01 </wgt>
<wgt id='rwgt_38'> +1.9919058e+01 </wgt>
<wgt id='rwgt_39'> +2.0022454e+01 </wgt>
<wgt id='rwgt_40'> +1.9933777e+01 </wgt>
<wgt id='rwgt_41'> +1.9992825e+01 </wgt>
<wgt id='rwgt_42'> +1.9904357e+01 </wgt>
<wgt id='rwgt_43'> +1.9978037e+01 </wgt>
<wgt id='rwgt_44'> +1.9948513e+01 </wgt>
<wgt id='rwgt_45'> +2.0007631e+01 </wgt>
<wgt id='rwgt_46'> +1.9978037e+01 </wgt>
<wgt id='rwgt_47'> +1.9948513e+01 </wgt>
<wgt id='rwgt_48'> +1.9919058e+01 </wgt>
<wgt id='rwgt_49'> +2.0022454e+01 </wgt>
<wgt id='rwgt_50'> +1.9963266e+01 </wgt>
<wgt id='rwgt_51'> +1.9963266e+01 </wgt>
<wgt id='rwgt_52'> +1.9904357e+01 </wgt>
<wgt id='rwgt_53'> +2.0037294e+01 </wgt>
<wgt id='rwgt_54'> +1.9948513e+01 </wgt>
<wgt id='rwgt_55'> +1.9978037e+01 </wgt>
<wgt id='rwgt_56'> +1.9889673e+01 </wgt>
<wgt id='rwgt_57'> +1.9992825e+01 </wgt>
<wgt id='rwgt_58'> +1.9933777e+01 </wgt>
<wgt id='rwgt_59'> +2.0022454e+01 </wgt>
<wgt id='rwgt_60'> +1.9992825e+01 </wgt>
<wgt id='rwgt_61'> +1.9933777e+01 </wgt>
<wgt id='rwgt_62'> +1.9904357e+01 </wgt>
<wgt id='rwgt_63'> +2.0037294e+01 </wgt>
<wgt id='rwgt_64'> +1.9978037e+01 </wgt>
<wgt id='rwgt_65'> +1.9948513e+01 </wgt>
<wgt id='rwgt_66'> +1.9889673e+01 </wgt>
<wgt id='rwgt_67'> +2.0052152e+01 </wgt>
<wgt id='rwgt_68'> +1.9963266e+01 </wgt>
<wgt id='rwgt_69'> +1.9963266e+01 </wgt>
<wgt id='rwgt_70'> +1.9875006e+01 </wgt>
<wgt id='rwgt_71'> +2.0007631e+01 </wgt>
<wgt id='rwgt_72'> +1.9919058e+01 </wgt>
<wgt id='rwgt_73'> +1.9978037e+01 </wgt>
<wgt id='rwgt_74'> +1.9948513e+01 </wgt>
<wgt id='rwgt_75'> +1.9992825e+01 </wgt>
<wgt id='rwgt_76'> +1.9933777e+01 </wgt>
<wgt id='rwgt_77'> +2.0007631e+01 </wgt>
<wgt id='rwgt_78'> +1.9919058e+01 </wgt>
<wgt id='rwgt_79'> +1.9963266e+01 </wgt>
<wgt id='rwgt_80'> +1.9992349e+01 </wgt>
<wgt id='rwgt_81'> +1.9962798e+01 </wgt>
<wgt id='rwgt_82'> +1.9962798e+01 </wgt>
<wgt id='rwgt_83'> +1.9933317e+01 </wgt>
<wgt id='rwgt_84'> +2.0007151e+01 </wgt>
<wgt id='rwgt_85'> +1.9948049e+01 </wgt>
<wgt id='rwgt_86'> +1.9977565e+01 </wgt>
<wgt id='rwgt_87'> +1.9918602e+01 </wgt>
<wgt id='rwgt_88'> +2.0021970e+01 </wgt>
<wgt id='rwgt_89'> +1.9933317e+01 </wgt>
<wgt id='rwgt_90'> +1.9992349e+01 </wgt>
<wgt id='rwgt_91'> +1.9903905e+01 </wgt>
<wgt id='rwgt_92'> +1.9977565e+01 </wgt>
<wgt id='rwgt_93'> +1.9948049e+01 </wgt>
<wgt id='rwgt_94'> +2.0007151e+01 </wgt>
<wgt id='rwgt_95'> +1.9977565e+01 </wgt>
<wgt id='rwgt_96'> +1.9948049e+01 </wgt>
<wgt id='rwgt_97'> +1.9918602e+01 </wgt>
<wgt id='rwgt_98'> +2.0021970e+01 </wgt>
<wgt id='rwgt_99'> +1.9962798e+01 </wgt>
<wgt id='rwgt_100'> +1.9962798e+01 </wgt>
<wgt id='rwgt_101'> +1.9903905e+01 </wgt>
<wgt id='rwgt_102'> +2.0036806e+01 </wgt>
<wgt id='rwgt_103'> +1.9948049e+01 </wgt>
<wgt id='rwgt_104'> +1.9977565e+01 </wgt>
<wgt id='rwgt_105'> +1.9889225e+01 </wgt>
<wgt id='rwgt_106'> +1.9992349e+01 </wgt>
<wgt id='rwgt_107'> +1.9933317e+01 </wgt>
<wgt id='rwgt_108'> +2.0021970e+01 </wgt>
<wgt id='rwgt_109'> +1.9992349e+01 </wgt>
<wgt id='rwgt_110'> +1.9933317e+01 </wgt>
<wgt id='rwgt_111'> +1.9903905e+01 </wgt>
<wgt id='rwgt_112'> +2.0036806e+01 </wgt>
<wgt id='rwgt_113'> +1.9977565e+01 </wgt>
<wgt id='rwgt_114'> +1.9948049e+01 </wgt>
<wgt id='rwgt_115'> +1.9889225e+01 </wgt>
<wgt id='rwgt_116'> +2.0051660e+01 </wgt>
<wgt id='rwgt_117'> +1.9962798e+01 </wgt>
<wgt id='rwgt_118'> +1.9962798e+01 </wgt>
<wgt id='rwgt_119'> +1.9874563e+01 </wgt>
<wgt id='rwgt_120'> +2.0007151e+01 </wgt>
<wgt id='rwgt_121'> +1.9918602e+01 </wgt>
<wgt id='rwgt_122'> +1.9977565e+01 </wgt>
<wgt id='rwgt_123'> +1.9948049e+01 </wgt>
<wgt id='rwgt_124'> +1.9992349e+01 </wgt>
<wgt id='rwgt_125'> +1.9933317e+01 </wgt>
<wgt id='rwgt_126'> +2.0007151e+01 </wgt>
<wgt id='rwgt_127'> +1.9918602e+01 </wgt>
<wgt id='rwgt_128'> +1.9962798e+01 </wgt>
<wgt id='rwgt_129'> +1.9993064e+01 </wgt>
<wgt id='rwgt_130'> +1.9963501e+01 </wgt>
<wgt id='rwgt_131'> +1.9963501e+01 </wgt>
<wgt id='rwgt_132'> +1.9934007e+01 </wgt>
<wgt id='rwgt_133'> +2.0007871e+01 </wgt>
<wgt id='rwgt_134'> +1.9948745e+01 </wgt>
<wgt id='rwgt_135'> +1.9978274e+01 </wgt>
<wgt id='rwgt_136'> +1.9919286e+01 </wgt>
<wgt id='rwgt_137'> +2.0022696e+01 </wgt>
<wgt id='rwgt_138'> +1.9934007e+01 </wgt>
<wgt id='rwgt_139'> +1.9993064e+01 </wgt>
<wgt id='rwgt_140'> +1.9904583e+01 </wgt>
<wgt id='rwgt_141'> +1.9978274e+01 </wgt>
<wgt id='rwgt_142'> +1.9948745e+01 </wgt>
<wgt id='rwgt_143'> +2.0007871e+01 </wgt>
<wgt id='rwgt_144'> +1.9978274e+01 </wgt>
<wgt id='rwgt_145'> +1.9948745e+01 </wgt>
<wgt id='rwgt_146'> +1.9919286e+01 </wgt>
<wgt id='rwgt_147'> +2.0022696e+01 </wgt>
<wgt id='rwgt_148'> +1.9963501e+01 </wgt>
<wgt id='rwgt_149'> +1.9963501e+01 </wgt>
<wgt id='rwgt_150'> +1.9904583e+01 </wgt>
<wgt id='rwgt_151'> +2.0037539e+01 </wgt>
<wgt id='rwgt_152'> +1.9948745e+01 </wgt>
<wgt id='rwgt_153'> +1.9978274e+01 </wgt>
<wgt id='rwgt_154'> +1.9889897e+01 </wgt>
<wgt id='rwgt_155'> +1.9993064e+01 </wgt>
<wgt id='rwgt_156'> +1.9934007e+01 </wgt>
<wgt id='rwgt_157'> +2.0022696e+01 </wgt>
<wgt id='rwgt_158'> +1.9993064e+01 </wgt>
<wgt id='rwgt_159'> +1.9934007e+01 </wgt>
<wgt id='rwgt_160'> +1.9904583e+01 </wgt>
<wgt id='rwgt_161'> +2.0037539e+01 </wgt>
<wgt id='rwgt_162'> +1.9978274e+01 </wgt>
<wgt id='rwgt_163'> +1.9948745e+01 </wgt>
<wgt id='rwgt_164'> +1.9889897e+01 </wgt>
<wgt id='rwgt_165'> +2.0052399e+01 </wgt>
<wgt id='rwgt_166'> +1.9963501e+01 </wgt>
<wgt id='rwgt_167'> +1.9963501e+01 </wgt>
<wgt id='rwgt_168'> +1.9875228e+01 </wgt>
<wgt id='rwgt_169'> +2.0007871e+01 </wgt>
<wgt id='rwgt_170'> +1.9919286e+01 </wgt>
<wgt id='rwgt_171'> +1.9978274e+01 </wgt>
<wgt id='rwgt_172'> +1.9948745e+01 </wgt>
<wgt id='rwgt_173'> +1.9993064e+01 </wgt>
<wgt id='rwgt_174'> +1.9934007e+01 </wgt>
<wgt id='rwgt_175'> +2.0007871e+01 </wgt>
<wgt id='rwgt_176'> +1.9919286e+01 </wgt>
<wgt id='rwgt_177'> +1.9963501e+01 </wgt>
<wgt id='rwgt_178'> +1.9992112e+01 </wgt>
<wgt id='rwgt_179'> +1.9962565e+01 </wgt>
<wgt id='rwgt_180'> +1.9962565e+01 </wgt>
<wgt id='rwgt_181'> +1.9933088e+01 </wgt>
<wgt id='rwgt_182'> +2.0006911e+01 </wgt>
<wgt id='rwgt_183'> +1.9947817e+01 </wgt>
<wgt id='rwgt_184'> +1.9977330e+01 </wgt>
<wgt id='rwgt_185'> +1.9918375e+01 </wgt>
<wgt id='rwgt_186'> +2.0021728e+01 </wgt>
<wgt id='rwgt_187'> +1.9933088e+01 </wgt>
<wgt id='rwgt_188'> +1.9992112e+01 </wgt>
<wgt id='rwgt_189'> +1.9903680e+01 </wgt>
<wgt id='rwgt_190'> +1.9977330e+01 </wgt>
<wgt id='rwgt_191'> +1.9947817e+01 </wgt>
<wgt id='rwgt_192'> +2.0006911e+01 </wgt>
<wgt id='rwgt_193'> +1.9977330e+01 </wgt>
<wgt id='rwgt_194'> +1.9947817e+01 </wgt>
<wgt id='rwgt_195'> +1.9918375e+01 </wgt>
<wgt id='rwgt_196'> +2.0021728e+01 </wgt>
<wgt id='rwgt_197'> +1.9962565e+01 </wgt>
<wgt id='rwgt_198'> +1.9962565e+01 </wgt>
<wgt id='rwgt_199'> +1.9903680e+01 </wgt>
<wgt id='rwgt_200'> +2.0036562e+01 </wgt>
<wgt id='rwgt_201'> +1.9947817e+01 </wgt>
<wgt id='rwgt_202'> +1.9977330e+01 </wgt>
<wgt id='rwgt_203'> +1.9889002e+01 </wgt>
<wgt id='rwgt_204'> +1.9992112e+01 </wgt>
<wgt id='rwgt_205'> +1.9933088e+01 </wgt>
<wgt id='rwgt_206'> +2.0021728e+01 </wgt>
<wgt id='rwgt_207'> +1.9992112e+01 </wgt>
<wgt id='rwgt_208'> +1.9933088e+01 </wgt>
<wgt id='rwgt_209'> +1.9903680e+01 </wgt>
<wgt id='rwgt_210'> +2.0036562e+01 </wgt>
<wgt id='rwgt_211'> +1.9977330e+01 </wgt>
<wgt id='rwgt_212'> +1.9947817e+01 </wgt>
<wgt id='rwgt_213'> +1.9889002e+01 </wgt>
<wgt id='rwgt_214'> +2.0051414e+01 </wgt>
<wgt id='rwgt_215'> +1.9962565e+01 </wgt>
<wgt id='rwgt_216'> +1.9962565e+01 </wgt>
<wgt id='rwgt_217'> +1.9874341e+01 </wgt>
<wgt id='rwgt_218'> +2.0006911e+01 </wgt>
<wgt id='rwgt_219'> +1.9918375e+01 </wgt>
<wgt id='rwgt_220'> +1.9977330e+01 </wgt>
<wgt id='rwgt_221'> +1.9947817e+01 </wgt>
<wgt id='rwgt_222'> +1.9992112e+01 </wgt>
<wgt id='rwgt_223'> +1.9933088e+01 </wgt>
<wgt id='rwgt_224'> +2.0006911e+01 </wgt>
<wgt id='rwgt_225'> +1.9918375e+01 </wgt>
<wgt id='rwgt_226'> +1.9962565e+01 </wgt>
<wgt id='rwgt_227'> +1.9993303e+01 </wgt>
<wgt id='rwgt_228'> +1.9963735e+01 </wgt>
<wgt id='rwgt_229'> +1.9963735e+01 </wgt>
<wgt id='rwgt_230'> +1.9934238e+01 </wgt>
<wgt id='rwgt_231'> +2.0008112e+01 </wgt>
<wgt id='rwgt_232'> +1.9948978e+01 </wgt>
<wgt id='rwgt_233'> +1.9978510e+01 </wgt>
<wgt id='rwgt_234'> +1.9919515e+01 </wgt>
<wgt id='rwgt_235'> +2.0022939e+01 </wgt>
<wgt id='rwgt_236'> +1.9934238e+01 </wgt>
<wgt id='rwgt_237'> +1.9993303e+01 </wgt>
<wgt id='rwgt_238'> +1.9904810e+01 </wgt>
<wgt id='rwgt_239'> +1.9978510e+01 </wgt>
<wgt id='rwgt_240'> +1.9948978e+01 </wgt>
<wgt id='rwgt_241'> +2.0008112e+01 </wgt>
<wgt id='rwgt_242'> +1.9978510e+01 </wgt>
<wgt id='rwgt_243'> +1.9948978e+01 </wgt>
<wgt id='rwgt_244'> +1.9919515e+01 </wgt>
<wgt id='rwgt_245'> +2.0022939e+01 </wgt>
<wgt id='rwgt_246'> +1.9963735e+01 </wgt>
<wgt id='rwgt_247'> +1.9963735e+01 </wgt>
<wgt id='rwgt_248'> +1.9904810e+01 </wgt>
<wgt id='rwgt_249'> +2.0037784e+01 </wgt>
<wgt id='rwgt_250'> +1.9948978e+01 </wgt>
<wgt id='rwgt_251'> +1.9978510e+01 </wgt>
<wgt id='rwgt_252'> +1.9890122e+01 </wgt>
<wgt id='rwgt_253'> +1.9993303e+01 </wgt>
<wgt id='rwgt_254'> +1.9934238e+01 </wgt>
<wgt id='rwgt_255'> +2.0022939e+01 </wgt>
<wgt id='rwgt_256'> +1.9993303e+01 </wgt>
<wgt id='rwgt_257'> +1.9934238e+01 </wgt>
<wgt id='rwgt_258'> +1.9904810e+01 </wgt>
<wgt id='rwgt_259'> +2.0037784e+01 </wgt>
<wgt id='rwgt_260'> +1.9978510e+01 </wgt>
<wgt id='rwgt_261'> +1.9948978e+01 </wgt>
<wgt id='rwgt_262'> +1.9890122e+01 </wgt>
<wgt id='rwgt_263'> +2.0052646e+01 </wgt>
<wgt id='rwgt_264'> +1.9963735e+01 </wgt>
<wgt id='rwgt_265'> +1.9963735e+01 </wgt>
<wgt id='rwgt_266'> +1.9875451e+01 </wgt>
<wgt id='rwgt_267'> +2.0008112e+01 </wgt>
<wgt id='rwgt_268'> +1.9919515e+01 </wgt>
<wgt id='rwgt_269'> +1.9978510e+01 </wgt>
<wgt id='rwgt_270'> +1.9948978e+01 </wgt>
<wgt id='rwgt_271'> +1.9993303e+01 </wgt>
<wgt id='rwgt_272'> +1.9934238e+01 </wgt>
<wgt id='rwgt_273'> +2.0008112e+01 </wgt>
<wgt id='rwgt_274'> +1.9919515e+01 </wgt>
<wgt id='rwgt_275'> +1.9963735e+01 </wgt>
<wgt id='rwgt_276'> +1.9991874e+01 </wgt>
<wgt id='rwgt_277'> +1.9962332e+01 </wgt>
<wgt id='rwgt_278'> +1.9962332e+01 </wgt>
<wgt id='rwgt_279'> +1.9932858e+01 </wgt>
<wgt id='rwgt_280'> +2.0006672e+01 </wgt>
<wgt id='rwgt_281'> +1.9947586e+01 </wgt>
<wgt id='rwgt_282'> +1.9977094e+01 </wgt>
<wgt id='rwgt_283'> +1.9918148e+01 </wgt>
<wgt id='rwgt_284'> +2.0021487e+01 </wgt>
<wgt id='rwgt_285'> +1.9932858e+01 </wgt>
<wgt id='rwgt_286'> +1.9991874e+01 </wgt>
<wgt id='rwgt_287'> +1.9903455e+01 </wgt>
<wgt id='rwgt_288'> +1.9977094e+01 </wgt>
<wgt id='rwgt_289'> +1.9947586e+01 </wgt>
<wgt id='rwgt_290'> +2.0006672e+01 </wgt>
<wgt id='rwgt_291'> +1.9977094e+01 </wgt>
<wgt id='rwgt_292'> +1.9947586e+01 </wgt>
<wgt id='rwgt_293'> +1.9918148e+01 </wgt>
<wgt id='rwgt_294'> +2.0021487e+01 </wgt>
<wgt id='rwgt_295'> +1.9962332e+01 </wgt>
<wgt id='rwgt_296'> +1.9962332e+01 </wgt>
<wgt id='rwgt_297'> +1.9903455e+01 </wgt>
<wgt id='rwgt_298'> +2.0036319e+01 </wgt>
<wgt id='rwgt_299'> +1.9947586e+01 </wgt>
<wgt id='rwgt_300'> +1.9977094e+01 </wgt>
<wgt id='rwgt_301'> +1.9888779e+01 </wgt>
<wgt id='rwgt_302'> +1.9991874e+01 </wgt>
<wgt id='rwgt_303'> +1.9932858e+01 </wgt>
<wgt id='rwgt_304'> +2.0021487e+01 </wgt>
<wgt id='rwgt_305'> +1.9991874e+01 </wgt>
<wgt id='rwgt_306'> +1.9932858e+01 </wgt>
<wgt id='rwgt_307'> +1.9903455e+01 </wgt>
<wgt id='rwgt_308'> +2.0036319e+01 </wgt>
<wgt id='rwgt_309'> +1.9977094e+01 </wgt>
<wgt id='rwgt_310'> +1.9947586e+01 </wgt>
<wgt id='rwgt_311'> +1.9888779e+01 </wgt>
<wgt id='rwgt_312'> +2.0051169e+01 </wgt>
<wgt id='rwgt_313'> +1.9962332e+01 </wgt>
<wgt id='rwgt_314'> +1.9962332e+01 </wgt>
<wgt id='rwgt_315'> +1.9874121e+01 </wgt>
<wgt id='rwgt_316'> +2.0006672e+01 </wgt>
<wgt id='rwgt_317'> +1.9918148e+01 </wgt>
<wgt id='rwgt_318'> +1.9977094e+01 </wgt>
<wgt id='rwgt_319'> +1.9947586e+01 </wgt>
<wgt id='rwgt_320'> +1.9991874e+01 </wgt>
<wgt id='rwgt_321'> +1.9932858e+01 </wgt>
<wgt id='rwgt_322'> +2.0006672e+01 </wgt>
<wgt id='rwgt_323'> +1.9918148e+01 </wgt>
<wgt id='rwgt_324'> +1.9962332e+01 </wgt>
<wgt id='rwgt_325'> +1.9992587e+01 </wgt>
<wgt id='rwgt_326'> +1.9963032e+01 </wgt>
<wgt id='rwgt_327'> +1.9963032e+01 </wgt>
<wgt id='rwgt_328'> +1.9933547e+01 </wgt>
<wgt id='rwgt_329'> +2.0007391e+01 </wgt>
<wgt id='rwgt_330'> +1.9948281e+01 </wgt>
<wgt id='rwgt_331'> +1.9977801e+01 </wgt>
<wgt id='rwgt_332'> +1.9918830e+01 </wgt>
<wgt id='rwgt_333'> +2.0022212e+01 </wgt>
<wgt id='rwgt_334'> +1.9933547e+01 </wgt>
<wgt id='rwgt_335'> +1.9992587e+01 </wgt>
<wgt id='rwgt_336'> +1.9904131e+01 </wgt>
<wgt id='rwgt_337'> +1.9977801e+01 </wgt>
<wgt id='rwgt_338'> +1.9948281e+01 </wgt>
<wgt id='rwgt_339'> +2.0007391e+01 </wgt>
<wgt id='rwgt_340'> +1.9977801e+01 </wgt>
<wgt id='rwgt_341'> +1.9948281e+01 </wgt>
<wgt id='rwgt_342'> +1.9918830e+01 </wgt>
<wgt id='rwgt_343'> +2.0022212e+01 </wgt>
<wgt id='rwgt_344'> +1.9963032e+01 </wgt>
<wgt id='rwgt_345'> +1.9963032e+01 </wgt>
<wgt id='rwgt_346'> +1.9904131e+01 </wgt>
<wgt id='rwgt_347'> +2.0037050e+01 </wgt>
<wgt id='rwgt_348'> +1.9948281e+01 </wgt>
<wgt id='rwgt_349'> +1.9977801e+01 </wgt>
<wgt id='rwgt_350'> +1.9889449e+01 </wgt>
<wgt id='rwgt_351'> +1.9992587e+01 </wgt>
<wgt id='rwgt_352'> +1.9933547e+01 </wgt>
<wgt id='rwgt_353'> +2.0022212e+01 </wgt>
<wgt id='rwgt_354'> +1.9992587e+01 </wgt>
<wgt id='rwgt_355'> +1.9933547e+01 </wgt>
<wgt id='rwgt_356'> +1.9904131e+01 </wgt>
<wgt id='rwgt_357'> +2.0037050e+01 </wgt>
<wgt id='rwgt_358'> +1.9977801e+01 </wgt>
<wgt id='rwgt_359'> +1.9948281e+01 </wgt>
<wgt id='rwgt_360'> +1.9889449e+01 </wgt>
<wgt id='rwgt_361'> +2.0051906e+01 </wgt>
<wgt id='rwgt_362'> +1.9963032e+01 </wgt>
<wgt id='rwgt_363'> +1.9963032e+01 </wgt>
<wgt id='rwgt_364'> +1.9874784e+01 </wgt>
<wgt id='rwgt_365'> +2.0007391e+01 </wgt>
<wgt id='rwgt_366'> +1.9918830e+01 </wgt>
<wgt id='rwgt_367'> +1.9977801e+01 </wgt>
<wgt id='rwgt_368'> +1.9948281e+01 </wgt>
<wgt id='rwgt_369'> +1.9992587e+01 </wgt>
<wgt id='rwgt_370'> +1.9933547e+01 </wgt>
<wgt id='rwgt_371'> +2.0007391e+01 </wgt>
<wgt id='rwgt_372'> +1.9918830e+01 </wgt>
<wgt id='rwgt_373'> +1.9963032e+01 </wgt>
</rwgt>
</event>
<event npLO=" -1 " npNLO=" 1 ">
 8      1 +1.9963618e+01 3.37692890e+01 7.54677110e-03 1.09623740e-01
       -1 -1    0    0    0  501 +0.0000000000e+00 +0.0000000000e+00 +8.1335096000e+01 8.1335096000e+01 0.0000000000e+00 0.0000e+00 9.0000e+00
       21 -1    0    0  501  503 +0.0000000000e+00 +0.0000000000e+00 -7.7103517000e+02 7.7103517000e+02 0.0000000000e+00 0.0000e+00 9.0000e+00
       24  2    1    2    0    0 +7.2689142000e+01 +1.0085542000e+02 -4.4380265000e+01 1.5475395000e+02 8.0769110000e+01 0.0000e+00 0.0000e+00
      -11  1    3    3    0    0 +5.3073424000e+01 +2.6245815000e+01 -4.9872166000e+01 7.7413591000e+01 0.0000000000e+00 0.0000e+00 9.0000e+00
       12  1    3    3    0    0 +1.9615718000e+01 +7.4609606000e+01 +5.4919019000e+00 7.7340356000e+01 0.0000000000e+00 0.0000e+00 9.0000e+00
       22  1    1    2    0    0 -5.5270120000e+01 -1.0890905000e+02 -2.0069680000e+02 2.3493653000e+02 0.0000000000e+00 0.0000e+00 9.0000e+00
       -2  1    1    2    0  502 -3.8615299000e+00 -4.8373506000e+01 -8.0762452000e+01 9.4220386000e+01 0.0000000000e+00 0.0000e+00 9.0000e+00
       21  1    1    2  502  503 -1.3557492000e+01 +5.6427135000e+01 -3.6386055000e+02 3.6845940000e+02 0.0000000000e+00 0.0000e+00 9.0000e+00
#aMCatNLO 2  0  0  2  2 0.10217084E+01 0.00000000E+00 -9  7  0 0.00000000E+00 0.00000000E+00 0.00000000E+00 0.00000000E+00 0.00000000E+00
<rwgt>
<wgt id='1001'> +1.9964000e+01 </wgt>
<wgt id='1002'> +1.6600000e+01 </wgt>
<wgt id='1003'> +2.4484000e+01 </wgt>
<wgt id='1004'> +1.9075000e+01 </wgt>
<wgt id='1005'> +1.5861000e+01 </wgt>
<wgt id='1006'> +2.3396000e+01 </wgt>
<wgt id='1007'> +2.0855000e+01 </wgt>
<wgt id='1008'> +1.7341000e+01 </wgt>
<wgt id='1009'> +2.5577000e+01 </wgt>
<wgt id='1010'> +1.9964000e+01 </wgt>
<wgt id='1011'> +1.9066000e+01 </wgt>
<wgt id='1012'> +2.0324000e+01 </wgt>
<wgt id='1013'> +2.1034000e+01 </wgt>
<wgt id='1014'> +1.9756000e+01 </wgt>
<wgt id='1015'> +1.9354000e+01 </wgt>
<wgt id='1016'> +1.8940000e+01 </wgt>
<wgt id='1017'> +2.0161000e+01 </wgt>
<wgt id='1018'> +2.0334000e+01 </wgt>
<wgt id='1019'> +2.0221000e+01 </wgt>
<wgt id='1020'> +2.0292000e+01 </wgt>
<wgt id='1021'> +1.9121000e+01 </wgt>
<wgt id='1022'> +1.9911000e+01 </wgt>
<wgt id='1023'> +1.9971000e+01 </wgt>
<wgt id='1024'> +2.0857000e+01 </wgt>
<wgt id='1025'> +1.9860000e+01 </wgt>
<wgt id='1026'> +2.0145000e+01 </wgt>
<wgt id='1027'> +2.0187000e+01 </wgt>
<wgt id='1028'> +1.9979000e+01 </wgt>
<wgt id='1029'> +1.9256000e+01 </wgt>
<wgt id='1030'> +2.0724000e+01 </wgt>
<wgt id='1031'> +1.9955000e+01 </wgt>
<wgt id='1032'> +2.0167000e+01 </wgt>
<wgt id='1033'> +1.9724000e+01 </wgt>
<wgt id='1034'> +2.0160000e+01 </wgt>
<wgt id='1035'> +2.0026000e+01 </wgt>
<wgt id='1036'> +1.9505000e+01 </wgt>
<wgt id='1037'> +2.0611000e+01 </wgt>
<wgt id='1038'> +2.0221000e+01 </wgt>
<wgt id='1039'> +2.0254000e+01 </wgt>
<wgt id='1040'> +2.0422000e+01 </wgt>
<wgt id='1041'> +2.0214000e+01 </wgt>
<wgt id='1042'> +1.9761000e+01 </wgt>
<wgt id='1043'> +1.9846000e+01 </wgt>
<wgt id='1044'> +1.9407000e+01 </wgt>
<wgt id='1045'> +2.1417000e+01 </wgt>
<wgt id='1046'> +1.9739000e+01 </wgt>
<wgt id='1047'> +2.0137000e+01 </wgt>
<wgt id='1048'> +1.9322000e+01 </wgt>
<wgt id='1049'> +1.9450000e+01 </wgt>
<wgt id='1050'> +1.9899000e+01 </wgt>
<wgt id='1051'> +1.9512000e+01 </wgt>
<wgt id='1052'> +1.9163000e+01 </wgt>
<wgt id='1053'> +1.9559000e+01 </wgt>
<wgt id='1054'> +1.9920000e+01 </wgt>
<wgt id='1055'> +2.0431000e+01 </wgt>
<wgt id='1056'> +1.9211000e+01 </wgt>
<wgt id='1057'> +1.9559000e+01 </wgt>
<wgt id='1058'> +1.9923000e+01 </wgt>
<wgt id='1059'> +2.0989000e+01 </wgt>
<wgt id='1060'> +2.0221000e+01 </wgt>
<wgt id='1061'> +2.0110000e+01 </wgt>
<wgt id='1062'> +2.0148000e+01 </wgt>
<wgt id='1063'> +1.9461000e+01 </wgt>
<wgt id='1064'> +1.9422000e+01 </wgt>
<wgt id='1065'> +2.0003000e+01 </wgt>
<wgt id='1066'> +2.0104000e+01 </wgt>
<wgt id='1067'> +2.0000000e+01 </wgt>
<wgt id='1068'> +2.0090000e+01 </wgt>
<wgt id='1069'> +2.0318000e+01 </wgt>
<wgt id='1070'> +2.0321000e+01 </wgt>
<wgt id='1071'> +2.0074000e+01 </wgt>
<wgt id='1072'> +2.0373000e+01 </wgt>
<wgt id='1073'> +1.9324000e+01 </wgt>
<wgt id='1074'> +2.0313000e+01 </wgt>
<wgt id='1075'> +2.0229000e+01 </wgt>
<wgt id='1076'> +2.0101000e+01 </wgt>
<wgt id='1077'> +1.9816000e+01 </wgt>
<wgt id='1078'> +2.0060000e+01 </wgt>
<wgt id='1079'> +1.9729000e+01 </wgt>
<wgt id='1080'> +1.9852000e+01 </wgt>
<wgt id='1081'> +1.9529000e+01 </wgt>
<wgt id='1082'> +1.9155000e+01 </wgt>
<wgt id='1083'> +1.9905000e+01 </wgt>
<wgt id='1084'> +2.0051000e+01 </wgt>
<wgt id='1085'> +1.9858000e+01 </wgt>
<wgt id='1086'> +1.9604000e+01 </wgt>
<wgt id='1087'> +1.9494000e+01 </wgt>
<wgt id='1088'> +1.9488000e+01 </wgt>
<wgt id='1089'> +1.9830000e+01 </wgt>
<wgt id='1090'> +2.0166000e+01 </wgt>
<wgt id='1091'> +2.0161000e+01 </wgt>
<wgt id='1092'> +2.0414000e+01 </wgt>
<wgt id='1093'> +1.9508000e+01 </wgt>
<wgt id='1094'> +2.0425000e+01 </wgt>
<wgt id='1095'> +2.0318000e+01 </wgt>
<wgt id='1096'> +2.0072000e+01 </wgt>
<wgt id='1097'> +2.0533000e+01 </wgt>
<wgt id='1098'> +2.0178000e+01 </wgt>
<wgt id='1099'> +1.9580000e+01 </wgt>
<wgt id='1100'> +2.0039000e+01 </wgt>
<wgt id='1101'> +2.0169000e+01 </wgt>
<wgt id='1102'> +2.0164000e+01 </wgt>
<wgt id='1103'> +2.0239000e+01 </wgt>
<wgt id='1104'> +1.9702000e+01 </wgt>
<wgt id='1105'> +2.0110000e+01 </wgt>
<wgt id='1106'> +1.9407000e+01 </wgt>
<wgt id='1107'> +2.0042000e+01 </wgt>
<wgt id='1108'> +1.9834000e+01 </wgt>
<wgt id='1109'> +2.0199000e+01 </wgt>
<wgt id='1110'> +1.9952000e+01 </wgt>
<wgt id='1111'> +1.9693000e+01 </wgt>
<wgt id='1112'> +2.0199000e+01 </wgt>
<wgt id='rwgt_1'> +2.0203142e+01 </wgt>
<wgt id='rwgt_2'> +2.0872431e+01 </wgt>
<wgt id='rwgt_3'> +2.0018465e+01 </wgt>
<wgt id='rwgt_4'> +2.1357042e+01 </wgt>
<wgt id='rwgt_5'> +2.1941632e+01 </wgt>
<wgt id='rwgt_6'> +1.9933766e+01 </wgt>
<wgt id='rwgt_7'> +2.0775635e+01 </wgt>
<wgt id='rwgt_8'> +2.0489236e+01 </wgt>
<wgt id='rwgt_9'> +2.1352750e+01 </wgt>
<wgt id='rwgt_10'> +2.0779952e+01 </wgt>
<wgt id='rwgt_11'> +2.2219142e+01 </wgt>
<wgt id='rwgt_12'> +2.1359944e+01 </wgt>
<wgt id='rwgt_13'> +2.0775635e+01 </wgt>
<wgt id='rwgt_14'> +2.0489236e+01 </wgt>
<wgt id='rwgt_15'> +2.1352750e+01 </wgt>
<wgt id='rwgt_16'> +2.0779952e+01 </wgt>
<wgt id='rwgt_17'> +2.2219142e+01 </wgt>
<wgt id='rwgt_18'> +2.1359944e+01 </wgt>
<wgt id='rwgt_19'> +2.0857801e+01 </wgt>
<wgt id='rwgt_20'> +2.0181779e+01 </wgt>
<wgt id='rwgt_21'> +2.1291792e+01 </wgt>
<wgt id='rwgt_22'> +1.9939747e+01 </wgt>
<wgt id='rwgt_23'> +2.1789768e+01 </wgt>
<wgt id='rwgt_24'> +1.9761701e+01 </wgt>
<wgt id='rwgt_25'> +2.0846288e+01 </wgt>
<wgt id='rwgt_26'> +2.0418583e+01 </wgt>
<wgt id='rwgt_27'> +2.1494057e+01 </wgt>
<wgt id='rwgt_28'> +2.0638645e+01 </wgt>
<wgt id='rwgt_29'> +2.2431101e+01 </wgt>
<wgt id='rwgt_30'> +2.1147984e+01 </wgt>
<wgt id='rwgt_31'> +2.1068295e+01 </wgt>
<wgt id='rwgt_32'> +2.0203142e+01 </wgt>
<wgt id='rwgt_33'> +2.0203142e+01 </wgt>
<wgt id='rwgt_34'> +2.0495096e+01 </wgt>
<wgt id='rwgt_35'> +2.1934787e+01 </wgt>
<wgt id='rwgt_36'> +2.0204481e+01 </wgt>
<wgt id='rwgt_37'> +2.0491080e+01 </wgt>
<wgt id='rwgt_38'> +2.1074988e+01 </wgt>
<wgt id='rwgt_39'> +2.3090555e+01 </wgt>
<wgt id='rwgt_40'> +2.0495096e+01 </wgt>
<wgt id='rwgt_41'> +2.1068295e+01 </wgt>
<wgt id='rwgt_42'> +2.1944157e+01 </wgt>
<wgt id='rwgt_43'> +2.0491080e+01 </wgt>
<wgt id='rwgt_44'> +2.0204481e+01 </wgt>
<wgt id='rwgt_45'> +2.1934787e+01 </wgt>
<wgt id='rwgt_46'> +2.0491080e+01 </wgt>
<wgt id='rwgt_47'> +2.0204481e+01 </wgt>
<wgt id='rwgt_48'> +2.1074988e+01 </wgt>
<wgt id='rwgt_49'> +2.3090555e+01 </wgt>
<wgt id='rwgt_50'> +2.0203142e+01 </wgt>
<wgt id='rwgt_51'> +2.0203142e+01 </wgt>
<wgt id='rwgt_52'> +2.1944157e+01 </wgt>
<wgt id='rwgt_53'> +2.4535601e+01 </wgt>
<wgt id='rwgt_54'> +2.0204481e+01 </wgt>
<wgt id='rwgt_55'> +2.0491080e+01 </wgt>
<wgt id='rwgt_56'> +2.3102603e+01 </wgt>
<wgt id='rwgt_57'> +2.1068295e+01 </wgt>
<wgt id='rwgt_58'> +2.0495096e+01 </wgt>
<wgt id='rwgt_59'> +2.3090555e+01 </wgt>
<wgt id='rwgt_60'> +2.1068295e+01 </wgt>
<wgt id='rwgt_61'> +2.0495096e+01 </wgt>
<wgt id='rwgt_62'> +2.1944157e+01 </wgt>
<wgt id='rwgt_63'> +2.4535601e+01 </wgt>
<wgt id='rwgt_64'> +2.0491080e+01 </wgt>
<wgt id='rwgt_65'> +2.0204481e+01 </wgt>
<wgt id='rwgt_66'> +2.3102603e+01 </wgt>
<wgt id='rwgt_67'> +2.6269923e+01 </wgt>
<wgt id='rwgt_68'> +2.0203142e+01 </wgt>
<wgt id='rwgt_69'> +2.0203142e+01 </wgt>
<wgt id='rwgt_70'> +2.4550326e+01 </wgt>
<wgt id='rwgt_71'> +2.1934787e+01 </wgt>
<wgt id='rwgt_72'> +2.1074988e+01 </wgt>
<wgt id='rwgt_73'> +2.0491080e+01 </wgt>
<wgt id='rwgt_74'> +2.0204481e+01 </wgt>
<wgt id='rwgt_75'> +2.1068295e+01 </wgt>
<wgt id='rwgt_76'> +2.0495096e+01 </wgt>
<wgt id='rwgt_77'> +2.1934787e+01 </wgt>
<wgt id='rwgt_78'> +2.1074988e+01 </wgt>
<wgt id='rwgt_79'> +2.0203142e+01 </wgt>
<wgt id='rwgt_80'> +2.1737184e+01 </wgt>
<wgt id='rwgt_81'> +2.0872431e+01 </wgt>
<wgt id='rwgt_82'> +2.0872431e+01 </wgt>
<wgt id='rwgt_83'> +2.1164785e+01 </wgt>
<wgt id='rwgt_84'> +2.2603475e+01 </wgt>
<wgt id='rwgt_85'> +2.0873970e+01 </wgt>
<wgt id='rwgt_86'> +2.1160169e+01 </wgt>
<wgt id='rwgt_87'> +2.1744877e+01 </wgt>
<wgt id='rwgt_88'> +2.3759044e+01 </wgt>
<wgt id='rwgt_89'> +2.1164785e+01 </wgt>
<wgt id='rwgt_90'> +2.1737184e+01 </wgt>
<wgt id='rwgt_91'> +2.2614247e+01 </wgt>
<wgt id='rwgt_92'> +2.1160169e+01 </wgt>
<wgt id='rwgt_93'> +2.0873970e+01 </wgt>
<wgt id='rwgt_94'> +2.2603475e+01 </wgt>
<wgt id='rwgt_95'> +2.1160169e+01 </wgt>
<wgt id='rwgt_96'> +2.0873970e+01 </wgt>
<wgt id='rwgt_97'> +2.1744877e+01 </wgt>
<wgt id='rwgt_98'> +2.3759044e+01 </wgt>
<wgt id='rwgt_99'> +2.0872431e+01 </wgt>
<wgt id='rwgt_100'> +2.0872431e+01 </wgt>
<wgt id='rwgt_101'> +2.2614247e+01 </wgt>
<wgt id='rwgt_102'> +2.5203889e+01 </wgt>
<wgt id='rwgt_103'> +2.0873970e+01 </wgt>
<wgt id='rwgt_104'> +2.1160169e+01 </wgt>
<wgt id='rwgt_105'> +2.3772893e+01 </wgt>
<wgt id='rwgt_106'> +2.1737184e+01 </wgt>
<wgt id='rwgt_107'> +2.1164785e+01 </wgt>
<wgt id='rwgt_108'> +2.3759044e+01 </wgt>
<wgt id='rwgt_109'> +2.1737184e+01 </wgt>
<wgt id='rwgt_110'> +2.1164785e+01 </wgt>
<wgt id='rwgt_111'> +2.2614247e+01 </wgt>
<wgt id='rwgt_112'> +2.5203889e+01 </wgt>
<wgt id='rwgt_113'> +2.1160169e+01 </wgt>
<wgt id='rwgt_114'> +2.0873970e+01 </wgt>
<wgt id='rwgt_115'> +2.3772893e+01 </wgt>
<wgt id='rwgt_116'> +2.6938011e+01 </wgt>
<wgt id='rwgt_117'> +2.0872431e+01 </wgt>
<wgt id='rwgt_118'> +2.0872431e+01 </wgt>
<wgt id='rwgt_119'> +2.5220815e+01 </wgt>
<wgt id='rwgt_120'> +2.2603475e+01 </wgt>
<wgt id='rwgt_121'> +2.1744877e+01 </wgt>
<wgt id='rwgt_122'> +2.1160169e+01 </wgt>
<wgt id='rwgt_123'> +2.0873970e+01 </wgt>
<wgt id='rwgt_124'> +2.1737184e+01 </wgt>
<wgt id='rwgt_125'> +2.1164785e+01 </wgt>
<wgt id='rwgt_126'> +2.2603475e+01 </wgt>
<wgt id='rwgt_127'> +2.1744877e+01 </wgt>
<wgt id='rwgt_128'> +2.0872431e+01 </wgt>
<wgt id='rwgt_129'> +2.0883818e+01 </wgt>
<wgt id='rwgt_130'> +2.0018465e+01 </wgt>
<wgt id='rwgt_131'> +2.0018465e+01 </wgt>
<wgt id='rwgt_132'> +2.0310219e+01 </wgt>
<wgt id='rwgt_133'> +2.1750410e+01 </wgt>
<wgt id='rwgt_134'> +2.0019703e+01 </wgt>
<wgt id='rwgt_135'> +2.0306503e+01 </wgt>
<wgt id='rwgt_136'> +2.0890011e+01 </wgt>
<wgt id='rwgt_137'> +2.2906278e+01 </wgt>
<wgt id='rwgt_138'> +2.0310219e+01 </wgt>
<wgt id='rwgt_139'> +2.0883818e+01 </wgt>
<wgt id='rwgt_140'> +2.1759080e+01 </wgt>
<wgt id='rwgt_141'> +2.0306503e+01 </wgt>
<wgt id='rwgt_142'> +2.0019703e+01 </wgt>
<wgt id='rwgt_143'> +2.1750410e+01 </wgt>
<wgt id='rwgt_144'> +2.0306503e+01 </wgt>
<wgt id='rwgt_145'> +2.0019703e+01 </wgt>
<wgt id='rwgt_146'> +2.0890011e+01 </wgt>
<wgt id='rwgt_147'> +2.2906278e+01 </wgt>
<wgt id='rwgt_148'> +2.0018465e+01 </wgt>
<wgt id='rwgt_149'> +2.0018465e+01 </wgt>
<wgt id='rwgt_150'> +2.1759080e+01 </wgt>
<wgt id='rwgt_151'> +2.4351424e+01 </wgt>
<wgt id='rwgt_152'> +2.0019703e+01 </wgt>
<wgt id='rwgt_153'> +2.0306503e+01 </wgt>
<wgt id='rwgt_154'> +2.2917426e+01 </wgt>
<wgt id='rwgt_155'> +2.0883818e+01 </wgt>
<wgt id='rwgt_156'> +2.0310219e+01 </wgt>
<wgt id='rwgt_157'> +2.2906278e+01 </wgt>
<wgt id='rwgt_158'> +2.0883818e+01 </wgt>
<wgt id='rwgt_159'> +2.0310219e+01 </wgt>
<wgt id='rwgt_160'> +2.1759080e+01 </wgt>
<wgt id='rwgt_161'> +2.4351424e+01 </wgt>
<wgt id='rwgt_162'> +2.0306503e+01 </wgt>
<wgt id='rwgt_163'> +2.0019703e+01 </wgt>
<wgt id='rwgt_164'> +2.2917426e+01 </wgt>
<wgt id='rwgt_165'> +2.6085846e+01 </wgt>
<wgt id='rwgt_166'> +2.0018465e+01 </wgt>
<wgt id='rwgt_167'> +2.0018465e+01 </wgt>
<wgt id='rwgt_168'> +2.4365048e+01 </wgt>
<wgt id='rwgt_169'> +2.1750410e+01 </wgt>
<wgt id='rwgt_170'> +2.0890011e+01 </wgt>
<wgt id='rwgt_171'> +2.0306503e+01 </wgt>
<wgt id='rwgt_172'> +2.0019703e+01 </wgt>
<wgt id='rwgt_173'> +2.0883818e+01 </wgt>
<wgt id='rwgt_174'> +2.0310219e+01 </wgt>
<wgt id='rwgt_175'> +2.1750410e+01 </wgt>
<wgt id='rwgt_176'> +2.0890011e+01 </wgt>
<wgt id='rwgt_177'> +2.0018465e+01 </wgt>
<wgt id='rwgt_178'> +2.2221595e+01 </wgt>
<wgt id='rwgt_179'> +2.1357042e+01 </wgt>
<wgt id='rwgt_180'> +2.1357042e+01 </wgt>
<wgt id='rwgt_181'> +2.1649597e+01 </wgt>
<wgt id='rwgt_182'> +2.3087787e+01 </wgt>
<wgt id='rwgt_183'> +2.1358681e+01 </wgt>
<wgt id='rwgt_184'> +2.1644680e+01 </wgt>
<wgt id='rwgt_185'> +2.2229789e+01 </wgt>
<wgt id='rwgt_186'> +2.4243255e+01 </wgt>
<wgt id='rwgt_187'> +2.1649597e+01 </wgt>
<wgt id='rwgt_188'> +2.2221595e+01 </wgt>
<wgt id='rwgt_189'> +2.3099259e+01 </wgt>
<wgt id='rwgt_190'> +2.1644680e+01 </wgt>
<wgt id='rwgt_191'> +2.1358681e+01 </wgt>
<wgt id='rwgt_192'> +2.3087787e+01 </wgt>
<wgt id='rwgt_193'> +2.1644680e+01 </wgt>
<wgt id='rwgt_194'> +2.1358681e+01 </wgt>
<wgt id='rwgt_195'> +2.2229789e+01 </wgt>
<wgt id='rwgt_196'> +2.4243255e+01 </wgt>
<wgt id='rwgt_197'> +2.1357042e+01 </wgt>
<wgt id='rwgt_198'> +2.1357042e+01 </wgt>
<wgt id='rwgt_199'> +2.3099259e+01 </wgt>
<wgt id='rwgt_200'> +2.5688000e+01 </wgt>
<wgt id='rwgt_201'> +2.1358681e+01 </wgt>
<wgt id='rwgt_202'> +2.1644680e+01 </wgt>
<wgt id='rwgt_203'> +2.4258005e+01 </wgt>
<wgt id='rwgt_204'> +2.2221595e+01 </wgt>
<wgt id='rwgt_205'> +2.1649597e+01 </wgt>
<wgt id='rwgt_206'> +2.4243255e+01 </wgt>
<wgt id='rwgt_207'> +2.2221595e+01 </wgt>
<wgt id='rwgt_208'> +2.1649597e+01 </wgt>
<wgt id='rwgt_209'> +2.3099259e+01 </wgt>
<wgt id='rwgt_210'> +2.5688000e+01 </wgt>
<wgt id='rwgt_211'> +2.1644680e+01 </wgt>
<wgt id='rwgt_212'> +2.1358681e+01 </wgt>
<wgt id='rwgt_213'> +2.4258005e+01 </wgt>
<wgt id='rwgt_214'> +2.7422022e+01 </wgt>
<wgt id='rwgt_215'> +2.1357042e+01 </wgt>
<wgt id='rwgt_216'> +2.1357042e+01 </wgt>
<wgt id='rwgt_217'> +2.5706027e+01 </wgt>
<wgt id='rwgt_218'> +2.3087787e+01 </wgt>
<wgt id='rwgt_219'> +2.2229789e+01 </wgt>
<wgt id='rwgt_220'> +2.1644680e+01 </wgt>
<wgt id='rwgt_221'> +2.1358681e+01 </wgt>
<wgt id='rwgt_222'> +2.2221595e+01 </wgt>
<wgt id='rwgt_223'> +2.1649597e+01 </wgt>
<wgt id='rwgt_224'> +2.3087787e+01 </wgt>
<wgt id='rwgt_225'> +2.2229789e+01 </wgt>
<wgt id='rwgt_226'> +2.1357042e+01 </wgt>
<wgt id='rwgt_227'> +2.0799319e+01 </wgt>
<wgt id='rwgt_228'> +1.9933766e+01 </wgt>
<wgt id='rwgt_229'> +1.9933766e+01 </wgt>
<wgt id='rwgt_230'> +2.0225320e+01 </wgt>
<wgt id='rwgt_231'> +2.1666011e+01 </wgt>
<wgt id='rwgt_232'> +1.9934904e+01 </wgt>
<wgt id='rwgt_233'> +2.0221904e+01 </wgt>
<wgt id='rwgt_234'> +2.0805012e+01 </wgt>
<wgt id='rwgt_235'> +2.2821980e+01 </wgt>
<wgt id='rwgt_236'> +2.0225320e+01 </wgt>
<wgt id='rwgt_237'> +2.0799319e+01 </wgt>
<wgt id='rwgt_238'> +2.1673981e+01 </wgt>
<wgt id='rwgt_239'> +2.0221904e+01 </wgt>
<wgt id='rwgt_240'> +1.9934904e+01 </wgt>
<wgt id='rwgt_241'> +2.1666011e+01 </wgt>
<wgt id='rwgt_242'> +2.0221904e+01 </wgt>
<wgt id='rwgt_243'> +1.9934904e+01 </wgt>
<wgt id='rwgt_244'> +2.0805012e+01 </wgt>
<wgt id='rwgt_245'> +2.2821980e+01 </wgt>
<wgt id='rwgt_246'> +1.9933766e+01 </wgt>
<wgt id='rwgt_247'> +1.9933766e+01 </wgt>
<wgt id='rwgt_248'> +2.1673981e+01 </wgt>
<wgt id='rwgt_249'> +2.4267225e+01 </wgt>
<wgt id='rwgt_250'> +1.9934904e+01 </wgt>
<wgt id='rwgt_251'> +2.0221904e+01 </wgt>
<wgt id='rwgt_252'> +2.2832226e+01 </wgt>
<wgt id='rwgt_253'> +2.0799319e+01 </wgt>
<wgt id='rwgt_254'> +2.0225320e+01 </wgt>
<wgt id='rwgt_255'> +2.2821980e+01 </wgt>
<wgt id='rwgt_256'> +2.0799319e+01 </wgt>
<wgt id='rwgt_257'> +2.0225320e+01 </wgt>
<wgt id='rwgt_258'> +2.1673981e+01 </wgt>
<wgt id='rwgt_259'> +2.4267225e+01 </wgt>
<wgt id='rwgt_260'> +2.0221904e+01 </wgt>
<wgt id='rwgt_261'> +1.9934904e+01 </wgt>
<wgt id='rwgt_262'> +2.2832226e+01 </wgt>
<wgt id='rwgt_263'> +2.6001747e+01 </wgt>
<wgt id='rwgt_264'> +1.9933766e+01 </wgt>
<wgt id='rwgt_265'> +1.9933766e+01 </wgt>
<wgt id='rwgt_266'> +2.4279749e+01 </wgt>
<wgt id='rwgt_267'> +2.1666011e+01 </wgt>
<wgt id='rwgt_268'> +2.0805012e+01 </wgt>
<wgt id='rwgt_269'> +2.0221904e+01 </wgt>
<wgt id='rwgt_270'> +1.9934904e+01 </wgt>
<wgt id='rwgt_271'> +2.0799319e+01 </wgt>
<wgt id='rwgt_272'> +2.0225320e+01 </wgt>
<wgt id='rwgt_273'> +2.1666011e+01 </wgt>
<wgt id='rwgt_274'> +2.0805012e+01 </wgt>
<wgt id='rwgt_275'> +1.9933766e+01 </wgt>
<wgt id='rwgt_276'> +2.2805985e+01 </wgt>
<wgt id='rwgt_277'> +2.1941632e+01 </wgt>
<wgt id='rwgt_278'> +2.1941632e+01 </wgt>
<wgt id='rwgt_279'> +2.2234387e+01 </wgt>
<wgt id='rwgt_280'> +2.3672076e+01 </wgt>
<wgt id='rwgt_281'> +2.1943371e+01 </wgt>
<wgt id='rwgt_282'> +2.2229170e+01 </wgt>
<wgt id='rwgt_283'> +2.2814679e+01 </wgt>
<wgt id='rwgt_284'> +2.4827444e+01 </wgt>
<wgt id='rwgt_285'> +2.2234387e+01 </wgt>
<wgt id='rwgt_286'> +2.2805985e+01 </wgt>
<wgt id='rwgt_287'> +2.3684249e+01 </wgt>
<wgt id='rwgt_288'> +2.2229170e+01 </wgt>
<wgt id='rwgt_289'> +2.1943371e+01 </wgt>
<wgt id='rwgt_290'> +2.3672076e+01 </wgt>
<wgt id='rwgt_291'> +2.2229170e+01 </wgt>
<wgt id='rwgt_292'> +2.1943371e+01 </wgt>
<wgt id='rwgt_293'> +2.2814679e+01 </wgt>
<wgt id='rwgt_294'> +2.4827444e+01 </wgt>
<wgt id='rwgt_295'> +2.1941632e+01 </wgt>
<wgt id='rwgt_296'> +2.1941632e+01 </wgt>
<wgt id='rwgt_297'> +2.3684249e+01 </wgt>
<wgt id='rwgt_298'> +2.6272089e+01 </wgt>
<wgt id='rwgt_299'> +2.1943371e+01 </wgt>
<wgt id='rwgt_300'> +2.2229170e+01 </wgt>
<wgt id='rwgt_301'> +2.4843095e+01 </wgt>
<wgt id='rwgt_302'> +2.2805985e+01 </wgt>
<wgt id='rwgt_303'> +2.2234387e+01 </wgt>
<wgt id='rwgt_304'> +2.4827444e+01 </wgt>
<wgt id='rwgt_305'> +2.2805985e+01 </wgt>
<wgt id='rwgt_306'> +2.2234387e+01 </wgt>
<wgt id='rwgt_307'> +2.3684249e+01 </wgt>
<wgt id='rwgt_308'> +2.6272089e+01 </wgt>
<wgt id='rwgt_309'> +2.2229170e+01 </wgt>
<wgt id='rwgt_310'> +2.1943371e+01 </wgt>
<wgt id='rwgt_311'> +2.4843095e+01 </wgt>
<wgt id='rwgt_312'> +2.8006011e+01 </wgt>
<wgt id='rwgt_313'> +2.1941632e+01 </wgt>
<wgt id='rwgt_314'> +2.1941632e+01 </wgt>
<wgt id='rwgt_315'> +2.6291218e+01 </wgt>
<wgt id='rwgt_316'> +2.3672076e+01 </wgt>
<wgt id='rwgt_317'> +2.2814679e+01 </wgt>
<wgt id='rwgt_318'> +2.2229170e+01 </wgt>
<wgt id='rwgt_319'> +2.1943371e+01 </wgt>
<wgt id='rwgt_320'> +2.2805985e+01 </wgt>
<wgt id='rwgt_321'> +2.2234387e+01 </wgt>
<wgt id='rwgt_322'> +2.3672076e+01 </wgt>
<wgt id='rwgt_323'> +2.2814679e+01 </wgt>
<wgt id='rwgt_324'> +2.1941632e+01 </wgt>
<wgt id='rwgt_325'> +2.1352750e+01 </wgt>
<wgt id='rwgt_326'> +2.0487797e+01 </wgt>
<wgt id='rwgt_327'> +2.0487797e+01 </wgt>
<wgt id='rwgt_328'> +2.0779952e+01 </wgt>
<wgt id='rwgt_329'> +2.2219142e+01 </wgt>
<wgt id='rwgt_330'> +2.0489236e+01 </wgt>
<wgt id='rwgt_331'> +2.0775635e+01 </wgt>
<wgt id='rwgt_332'> +2.1359944e+01 </wgt>
<wgt id='rwgt_333'> +2.3374810e+01 </wgt>
<wgt id='rwgt_334'> +2.0779952e+01 </wgt>
<wgt id='rwgt_335'> +2.1352750e+01 </wgt>
<wgt id='rwgt_336'> +2.2229213e+01 </wgt>
<wgt id='rwgt_337'> +2.0775635e+01 </wgt>
<wgt id='rwgt_338'> +2.0489236e+01 </wgt>
<wgt id='rwgt_339'> +2.2219142e+01 </wgt>
<wgt id='rwgt_340'> +2.0775635e+01 </wgt>
<wgt id='rwgt_341'> +2.0489236e+01 </wgt>
<wgt id='rwgt_342'> +2.1359944e+01 </wgt>
<wgt id='rwgt_343'> +2.3374810e+01 </wgt>
<wgt id='rwgt_344'> +2.0487797e+01 </wgt>
<wgt id='rwgt_345'> +2.0487797e+01 </wgt>
<wgt id='rwgt_346'> +2.2229213e+01 </wgt>
<wgt id='rwgt_347'> +2.4819756e+01 </wgt>
<wgt id='rwgt_348'> +2.0489236e+01 </wgt>
<wgt id='rwgt_349'> +2.0775635e+01 </wgt>
<wgt id='rwgt_350'> +2.3387759e+01 </wgt>
<wgt id='rwgt_351'> +2.1352750e+01 </wgt>
<wgt id='rwgt_352'> +2.0779952e+01 </wgt>
<wgt id='rwgt_353'> +2.3374810e+01 </wgt>
<wgt id='rwgt_354'> +2.1352750e+01 </wgt>
<wgt id='rwgt_355'> +2.0779952e+01 </wgt>
<wgt id='rwgt_356'> +2.2229213e+01 </wgt>
<wgt id='rwgt_357'> +2.4819756e+01 </wgt>
<wgt id='rwgt_358'> +2.0775635e+01 </wgt>
<wgt id='rwgt_359'> +2.0489236e+01 </wgt>
<wgt id='rwgt_360'> +2.3387759e+01 </wgt>
<wgt id='rwgt_361'> +2.6553978e+01 </wgt>
<wgt id='rwgt_362'> +2.0487797e+01 </wgt>
<wgt id='rwgt_363'> +2.0487797e+01 </wgt>
<wgt id='rwgt_364'> +2.4835582e+01 </wgt>
<wgt id='rwgt_365'> +2.2219142e+01 </wgt>
<wgt id='rwgt_366'> +2.1359944e+01 </wgt>
<wgt id='rwgt_367'> +2.0775635e+01 </wgt>
<wgt id='rwgt_368'> +2.0489236e+01 </wgt>
<wgt id='rwgt_369'> +2.1352750e+01 </wgt>
<wgt id='rwgt_370'> +2.0779952e+01 </wgt>
<wgt id='rwgt_371'> +2.2219142e+01 </wgt>
<wgt id='rwgt_372'> +2.1359944e+01 </wgt>
<wgt id='rwgt_373'> +2.0487797e+01 </wgt>
</rwgt>
</event>
<event npLO=" -1 " npNLO=" 0 ">
 7      0 +1.9963618e+01 8.95199700e+01 7.54677110e-03 1.17240270e-01
        1 -1    0    0  501    0 +0.0000000000e+00 +0.0000000000e+00 +1.9520598000e+02 1.9520598000e+02 0.0000000000e+00 0.0000e+00 9.0000e+00
       21 -1    0    0  502  501 +0.0000000000e+00 +0.0000000000e+00 -8.1104365000e+01 8.1104365000e+01 0.0000000000e+00 0.0000e+00 9.0000e+00
      -24  2    1    2    0    0 -5.9947782000e+01 -2.6793152000e+01 +8.1056313000e+01 1.3092717000e+02 7.9121348000e+01 0.0000e+00 0.0000e+00
       11  1    3    3    0    0 -7.9554619000e+01 -2.0646421000e+01 +6.2722092000e+01 1.0338894000e+02 0.0000000000e+00 0.0000e+00 9.0000e+00
      -12  1    3    3    0    0 +1.9606836000e+01 -6.1467309000e+00 +1.8334221000e+01 2.7538228000e+01 0.0000000000e+00 0.0000e+00 9.0000e+00
       22  1    1    2    0    0 +3.6558184000e+01 +7.6146112000e+01 +3.3227880000e+01 9.0767963000e+01 0.0000000000e+00 0.0000e+00 9.0000e+00
        2  1    1    2  502    0 +2.3389598000e+01 -4.9352959000e+01 -1.8258279000e-01 5.4615211000e+01 0.0000000000e+00 0.0000e+00 9.0000e+00
#aMCatNLO 2  0  0  2  1 0.17147941E+03 0.00000000E+00 -9  6  0 0.00000000E+00 0.00000000E+00 0.00000000E+00 0.00000000E+00 0.00000000E+00
<rwgt>
<wgt id='1001'> +1.9963000e+01 </wgt>
<wgt id='1002'> +1.8089000e+01 </wgt>
<wgt id='1003'> +2.2282000e+01 </wgt>
<wgt id='1004'> +2.0594000e+01 </wgt>
<wgt id='1005'> +1.8661000e+01 </wgt>
<wgt id='1006'> +2.2986000e+01 </wgt>
<wgt id='1007'> +1.9033000e+01 </wgt>
<wgt id='1008'> +1.7245000e+01 </wgt>
<wgt id='1009'> +2.1243000e+01 </wgt>
<wgt id='1010'> +1.9963000e+01 </wgt>
<wgt id='1011'> +1.8775000e+01 </wgt>
<wgt id='1012'> +2.0462000e+01 </wgt>
<wgt id='1013'> +1.9946000e+01 </wgt>
<wgt id='1014'> +2.0046000e+01 </wgt>
<wgt id='1015'> +1.7830000e+01 </wgt>
<wgt id='1016'> +1.9721000e+01 </wgt>
<wgt id='1017'> +2.0917000e+01 </wgt>
<wgt id='1018'> +1.9565000e+01 </wgt>
<wgt id='1019'> +1.9840000e+01 </wgt>
<wgt id='1020'> +2.0225000e+01 </wgt>
<wgt id='1021'> +2.0416000e+01 </wgt>
<wgt id='1022'> +2.0169000e+01 </wgt>
<wgt id='1023'> +2.0438000e+01 </wgt>
<wgt id='1024'> +1.9774000e+01 </wgt>
<wgt id='1025'> +2.0009000e+01 </wgt>
<wgt id='1026'> +1.9369000e+01 </wgt>
<wgt id='1027'> +1.9541000e+01 </wgt>
<wgt id='1028'> +1.9056000e+01 </wgt>
<wgt id='1029'> +2.0538000e+01 </wgt>
<wgt id='1030'> +1.9313000e+01 </wgt>
<wgt id='1031'> +2.0845000e+01 </wgt>
<wgt id='1032'> +1.9890000e+01 </wgt>
<wgt id='1033'> +2.0964000e+01 </wgt>
<wgt id='1034'> +1.9682000e+01 </wgt>
<wgt id='1035'> +2.0189000e+01 </wgt>
<wgt id='1036'> +1.9554000e+01 </wgt>
<wgt id='1037'> +1.9627000e+01 </wgt>
<wgt id='1038'> +2.0107000e+01 </wgt>
<wgt id='1039'> +1.9599000e+01 </wgt>
<wgt id='1040'> +1.9958000e+01 </wgt>
<wgt id='1041'> +1.9769000e+01 </wgt>
<wgt id='1042'> +1.9811000e+01 </wgt>
<wgt id='1043'> +2.0480000e+01 </wgt>
<wgt id='1044'> +1.9746000e+01 </wgt>
<wgt id='1045'> +2.0180000e+01 </wgt>
<wgt id='1046'> +1.9852000e+01 </wgt>
<wgt id='1047'> +1.9986000e+01 </wgt>
<wgt id='1048'> +1.9645000e+01 </wgt>
<wgt id='1049'> +1.9173000e+01 </wgt>
<wgt id='1050'> +2.0150000e+01 </wgt>
<wgt id='1051'> +2.0818000e+01 </wgt>
<wgt id='1052'> +2.0531000e+01 </wgt>
<wgt id='1053'> +2.0072000e+01 </wgt>
<wgt id='1054'> +1.9519000e+01 </wgt>
<wgt id='1055'> +2.0383000e+01 </wgt>
<wgt id='1056'> +2.0089000e+01 </wgt>
<wgt id='1057'> +1.9710000e+01 </wgt>
<wgt id='1058'> +1.9876000e+01 </wgt>
<wgt id='1059'> +1.9859000e+01 </wgt>
<wgt id='1060'> +2.0267000e+01 </wgt>
<wgt id='1061'> +2.0349000e+01 </wgt>
<wgt id='1062'> +1.9723000e+01 </wgt>
<wgt id='1063'> +2.0299000e+01 </wgt>
<wgt id='1064'> +2.0341000e+01 </wgt>
<wgt id='1065'> +2.0015000e+01 </wgt>
<wgt id='1066'> +1.9469000e+01 </wgt>
<wgt id='1067'> +2.0323000e+01 </wgt>
<wgt id='1068'> +1.9947000e+01 </wgt>
<wgt id='1069'> +1.9697000e+01 </wgt>
<wgt id='1070'> +1.9919000e+01 </wgt>
<wgt id='1071'> +1.9990000e+01 </wgt>
<wgt id='1072'> +2.0135000e+01 </wgt>
<wgt id='1073'> +2.0456000e+01 </wgt>
<wgt id='1074'> +1.9368000e+01 </wgt>
<wgt id='1075'> +2.0216000e+01 </wgt>
<wgt id='1076'> +1.9633000e+01 </wgt>
<wgt id='1077'> +2.0870000e+01 </wgt>
<wgt id='1078'> +2.0002000e+01 </wgt>
<wgt id='1079'> +1.9763000e+01 </wgt>
<wgt id='1080'> +1.9755000e+01 </wgt>
<wgt id='1081'> +2.0216000e+01 </wgt>
<wgt id='1082'> +1.9485000e+01 </wgt>
<wgt id='1083'> +1.9151000e+01 </wgt>
<wgt id='1084'> +2.0013000e+01 </wgt>
<wgt id='1085'> +2.0398000e+01 </wgt>
<wgt id='1086'> +1.9160000e+01 </wgt>
<wgt id='1087'> +2.0104000e+01 </wgt>
<wgt id='1088'> +2.0536000e+01 </wgt>
<wgt id='1089'> +2.0080000e+01 </wgt>
<wgt id='1090'> +1.9840000e+01 </wgt>
<wgt id='1091'> +2.0072000e+01 </wgt>
<wgt id='1092'> +2.0356000e+01 </wgt>
<wgt id='1093'> +1.9502000e+01 </wgt>
<wgt id='1094'> +2.0131000e+01 </wgt>
<wgt id='1095'> +1.9804000e+01 </wgt>
<wgt id='1096'> +2.0194000e+01 </wgt>
<wgt id='1097'> +2.0045000e+01 </wgt>
<wgt id='1098'> +2.0496000e+01 </wgt>
<wgt id='1099'> +2.0035000e+01 </wgt>
<wgt id='1100'> +2.0158000e+01 </wgt>
<wgt id='1101'> +2.0272000e+01 </wgt>
<wgt id='1102'> +2.0074000e+01 </wgt>
<wgt id='1103'> +1.9596000e+01 </wgt>
<wgt id='1104'> +2.0390000e+01 </wgt>
<wgt id='1105'> +1.9207000e+01 </wgt>
<wgt id='1106'> +2.0255000e+01 </wgt>
<wgt id='1107'> +2.0124000e+01 </wgt>
<wgt id='1108'> +2.0535000e+01 </wgt>
<wgt id='1109'> +2.0442000e+01 </wgt>
<wgt id='1110'> +1.9219000e+01 </wgt>
<wgt id='1111'> +1.9863000e+01 </wgt>
<wgt id='1112'> +2.0013000e+01 </wgt>
<wgt id='rwgt_1'> +2.1038898e+01 </wgt>
<wgt id='rwgt_2'> +2.2675631e+01 </wgt>
<wgt id='rwgt_3'> +2.0307543e+01 </wgt>
<wgt id='rwgt_4'> +2.3581008e+01 </wgt>
<wgt id='rwgt_5'> +2.4544392e+01 </wgt>
<wgt id='rwgt_6'> +1.9634195e+01 </wgt>
<wgt id='rwgt_7'> +1.9785739e+01 </wgt>
<wgt id='rwgt_8'> +2.4100219e+01 </wgt>
<wgt id='rwgt_9'> +1.7972653e+01 </wgt>
<wgt id='rwgt_10'> +2.6601614e+01 </wgt>
<wgt id='rwgt_11'> +1.6389004e+01 </wgt>
<wgt id='rwgt_12'> +2.9332445e+01 </wgt>
<wgt id='rwgt_13'> +1.9785739e+01 </wgt>
<wgt id='rwgt_14'> +2.4100219e+01 </wgt>
<wgt id='rwgt_15'> +1.7972653e+01 </wgt>
<wgt id='rwgt_16'> +2.6601614e+01 </wgt>
<wgt id='rwgt_17'> +1.6389004e+01 </wgt>
<wgt id='rwgt_18'> +2.9332445e+01 </wgt>
<wgt id='rwgt_19'> +2.1363490e+01 </wgt>
<wgt id='rwgt_20'> +2.2330156e+01 </wgt>
<wgt id='rwgt_21'> +2.0935844e+01 </wgt>
<wgt id='rwgt_22'> +2.2869177e+01 </wgt>
<wgt id='rwgt_23'> +2.0545322e+01 </wgt>
<wgt id='rwgt_24'> +2.3445321e+01 </wgt>
<wgt id='rwgt_25'> +2.1448622e+01 </wgt>
<wgt id='rwgt_26'> +2.2437336e+01 </wgt>
<wgt id='rwgt_27'> +2.1298420e+01 </wgt>
<wgt id='rwgt_28'> +2.3275847e+01 </wgt>
<wgt id='rwgt_29'> +2.1377654e+01 </wgt>
<wgt id='rwgt_30'> +2.4343795e+01 </wgt>
<wgt id='rwgt_31'> +1.7367159e+01 </wgt>
<wgt id='rwgt_32'> +2.1038898e+01 </wgt>
<wgt id='rwgt_33'> +2.1038898e+01 </wgt>
<wgt id='rwgt_34'> +2.5628383e+01 </wgt>
<wgt id='rwgt_35'> +1.5875444e+01 </wgt>
<wgt id='rwgt_36'> +2.3218922e+01 </wgt>
<wgt id='rwgt_37'> +1.9088311e+01 </wgt>
<wgt id='rwgt_38'> +2.8267280e+01 </wgt>
<wgt id='rwgt_39'> +1.4613165e+01 </wgt>
<wgt id='rwgt_40'> +2.5628383e+01 </wgt>
<wgt id='rwgt_41'> +1.7367159e+01 </wgt>
<wgt id='rwgt_42'> +3.1135613e+01 </wgt>
<wgt id='rwgt_43'> +1.9088311e+01 </wgt>
<wgt id='rwgt_44'> +2.3218922e+01 </wgt>
<wgt id='rwgt_45'> +1.5875444e+01 </wgt>
<wgt id='rwgt_46'> +1.9088311e+01 </wgt>
<wgt id='rwgt_47'> +2.3218922e+01 </wgt>
<wgt id='rwgt_48'> +2.8267280e+01 </wgt>
<wgt id='rwgt_49'> +1.4613165e+01 </wgt>
<wgt id='rwgt_50'> +2.1038898e+01 </wgt>
<wgt id='rwgt_51'> +2.1038898e+01 </wgt>
<wgt id='rwgt_52'> +3.1135613e+01 </wgt>
<wgt id='rwgt_53'> +1.3580323e+01 </wgt>
<wgt id='rwgt_54'> +2.3218922e+01 </wgt>
<wgt id='rwgt_55'> +1.9088311e+01 </wgt>
<wgt id='rwgt_56'> +3.4233383e+01 </wgt>
<wgt id='rwgt_57'> +1.7367159e+01 </wgt>
<wgt id='rwgt_58'> +2.5628383e+01 </wgt>
<wgt id='rwgt_59'> +1.4613165e+01 </wgt>
<wgt id='rwgt_60'> +1.7367159e+01 </wgt>
<wgt id='rwgt_61'> +2.5628383e+01 </wgt>
<wgt id='rwgt_62'> +3.1135613e+01 </wgt>
<wgt id='rwgt_63'> +1.3580323e+01 </wgt>
<wgt id='rwgt_64'> +1.9088311e+01 </wgt>
<wgt id='rwgt_65'> +2.3218922e+01 </wgt>
<wgt id='rwgt_66'> +3.4233383e+01 </wgt>
<wgt id='rwgt_67'> +1.2776917e+01 </wgt>
<wgt id='rwgt_68'> +2.1038898e+01 </wgt>
<wgt id='rwgt_69'> +2.1038898e+01 </wgt>
<wgt id='rwgt_70'> +3.7560589e+01 </wgt>
<wgt id='rwgt_71'> +1.5875444e+01 </wgt>
<wgt id='rwgt_72'> +2.8267280e+01 </wgt>
<wgt id='rwgt_73'> +1.9088311e+01 </wgt>
<wgt id='rwgt_74'> +2.3218922e+01 </wgt>
<wgt id='rwgt_75'> +1.7367159e+01 </wgt>
<wgt id='rwgt_76'> +2.5628383e+01 </wgt>
<wgt id='rwgt_77'> +1.5875444e+01 </wgt>
<wgt id='rwgt_78'> +2.8267280e+01 </wgt>
<wgt id='rwgt_79'> +2.1038898e+01 </wgt>
<wgt id='rwgt_80'> +1.8636154e+01 </wgt>
<wgt id='rwgt_81'> +2.2675631e+01 </wgt>
<wgt id='rwgt_82'> +2.2675631e+01 </wgt>
<wgt id='rwgt_83'> +2.7632853e+01 </wgt>
<wgt id='rwgt_84'> +1.6960570e+01 </wgt>
<wgt id='rwgt_85'> +2.5039523e+01 </wgt>
<wgt id='rwgt_86'> +2.0541174e+01 </wgt>
<wgt id='rwgt_87'> +3.0455618e+01 </wgt>
<wgt id='rwgt_88'> +1.5514423e+01 </wgt>
<wgt id='rwgt_89'> +2.7632853e+01 </wgt>
<wgt id='rwgt_90'> +1.8636154e+01 </wgt>
<wgt id='rwgt_91'> +3.3507820e+01 </wgt>
<wgt id='rwgt_92'> +2.0541174e+01 </wgt>
<wgt id='rwgt_93'> +2.5039523e+01 </wgt>
<wgt id='rwgt_94'> +1.6960570e+01 </wgt>
<wgt id='rwgt_95'> +2.0541174e+01 </wgt>
<wgt id='rwgt_96'> +2.5039523e+01 </wgt>
<wgt id='rwgt_97'> +3.0455618e+01 </wgt>
<wgt id='rwgt_98'> +1.5514423e+01 </wgt>
<wgt id='rwgt_99'> +2.2675631e+01 </wgt>
<wgt id='rwgt_100'> +2.2675631e+01 </wgt>
<wgt id='rwgt_101'> +3.3507820e+01 </wgt>
<wgt id='rwgt_102'> +1.4297712e+01 </wgt>
<wgt id='rwgt_103'> +2.5039523e+01 </wgt>
<wgt id='rwgt_104'> +2.0541174e+01 </wgt>
<wgt id='rwgt_105'> +3.6789459e+01 </wgt>
<wgt id='rwgt_106'> +1.8636154e+01 </wgt>
<wgt id='rwgt_107'> +2.7632853e+01 </wgt>
<wgt id='rwgt_108'> +1.5514423e+01 </wgt>
<wgt id='rwgt_109'> +1.8636154e+01 </wgt>
<wgt id='rwgt_110'> +2.7632853e+01 </wgt>
<wgt id='rwgt_111'> +3.3507820e+01 </wgt>
<wgt id='rwgt_112'> +1.4297712e+01 </wgt>
<wgt id='rwgt_113'> +2.0541174e+01 </wgt>
<wgt id='rwgt_114'> +2.5039523e+01 </wgt>
<wgt id='rwgt_115'> +3.6789459e+01 </wgt>
<wgt id='rwgt_116'> +1.3310437e+01 </wgt>
<wgt id='rwgt_117'> +2.2675631e+01 </wgt>
<wgt id='rwgt_118'> +2.2675631e+01 </wgt>
<wgt id='rwgt_119'> +4.0300533e+01 </wgt>
<wgt id='rwgt_120'> +1.6960570e+01 </wgt>
<wgt id='rwgt_121'> +3.0455618e+01 </wgt>
<wgt id='rwgt_122'> +2.0541174e+01 </wgt>
<wgt id='rwgt_123'> +2.5039523e+01 </wgt>
<wgt id='rwgt_124'> +1.8636154e+01 </wgt>
<wgt id='rwgt_125'> +2.7632853e+01 </wgt>
<wgt id='rwgt_126'> +1.6960570e+01 </wgt>
<wgt id='rwgt_127'> +3.0455618e+01 </wgt>
<wgt id='rwgt_128'> +2.2675631e+01 </wgt>
<wgt id='rwgt_129'> +1.6819673e+01 </wgt>
<wgt id='rwgt_130'> +2.0307543e+01 </wgt>
<wgt id='rwgt_131'> +2.0307543e+01 </wgt>
<wgt id='rwgt_132'> +2.4713159e+01 </wgt>
<wgt id='rwgt_133'> +1.5419892e+01 </wgt>
<wgt id='rwgt_134'> +2.2395633e+01 </wgt>
<wgt id='rwgt_135'> +1.8448890e+01 </wgt>
<wgt id='rwgt_136'> +2.7260121e+01 </wgt>
<wgt id='rwgt_137'> +1.4249548e+01 </wgt>
<wgt id='rwgt_138'> +2.4713159e+01 </wgt>
<wgt id='rwgt_139'> +1.6819673e+01 </wgt>
<wgt id='rwgt_140'> +3.0036520e+01 </wgt>
<wgt id='rwgt_141'> +1.8448890e+01 </wgt>
<wgt id='rwgt_142'> +2.2395633e+01 </wgt>
<wgt id='rwgt_143'> +1.5419892e+01 </wgt>
<wgt id='rwgt_144'> +1.8448890e+01 </wgt>
<wgt id='rwgt_145'> +2.2395633e+01 </wgt>
<wgt id='rwgt_146'> +2.7260121e+01 </wgt>
<wgt id='rwgt_147'> +1.4249548e+01 </wgt>
<wgt id='rwgt_148'> +2.0307543e+01 </wgt>
<wgt id='rwgt_149'> +2.0307543e+01 </wgt>
<wgt id='rwgt_150'> +3.0036520e+01 </wgt>
<wgt id='rwgt_151'> +1.3308640e+01 </wgt>
<wgt id='rwgt_152'> +2.2395633e+01 </wgt>
<wgt id='rwgt_153'> +1.8448890e+01 </wgt>
<wgt id='rwgt_154'> +3.3042355e+01 </wgt>
<wgt id='rwgt_155'> +1.6819673e+01 </wgt>
<wgt id='rwgt_156'> +2.4713159e+01 </wgt>
<wgt id='rwgt_157'> +1.4249548e+01 </wgt>
<wgt id='rwgt_158'> +1.6819673e+01 </wgt>
<wgt id='rwgt_159'> +2.4713159e+01 </wgt>
<wgt id='rwgt_160'> +3.0036520e+01 </wgt>
<wgt id='rwgt_161'> +1.3308640e+01 </wgt>
<wgt id='rwgt_162'> +1.8448890e+01 </wgt>
<wgt id='rwgt_163'> +2.2395633e+01 </wgt>
<wgt id='rwgt_164'> +3.3042355e+01 </wgt>
<wgt id='rwgt_165'> +1.2597168e+01 </wgt>
<wgt id='rwgt_166'> +2.0307543e+01 </wgt>
<wgt id='rwgt_167'> +2.0307543e+01 </wgt>
<wgt id='rwgt_168'> +3.6277627e+01 </wgt>
<wgt id='rwgt_169'> +1.5419892e+01 </wgt>
<wgt id='rwgt_170'> +2.7260121e+01 </wgt>
<wgt id='rwgt_171'> +1.8448890e+01 </wgt>
<wgt id='rwgt_172'> +2.2395633e+01 </wgt>
<wgt id='rwgt_173'> +1.6819673e+01 </wgt>
<wgt id='rwgt_174'> +2.4713159e+01 </wgt>
<wgt id='rwgt_175'> +1.5419892e+01 </wgt>
<wgt id='rwgt_176'> +2.7260121e+01 </wgt>
<wgt id='rwgt_177'> +2.0307543e+01 </wgt>
<wgt id='rwgt_178'> +1.9357662e+01 </wgt>
<wgt id='rwgt_179'> +2.3581008e+01 </wgt>
<wgt id='rwgt_180'> +2.3581008e+01 </wgt>
<wgt id='rwgt_181'> +2.8722098e+01 </wgt>
<wgt id='rwgt_182'> +1.7590144e+01 </wgt>
<wgt id='rwgt_183'> +2.6036835e+01 </wgt>
<wgt id='rwgt_184'> +2.1354617e+01 </wgt>
<wgt id='rwgt_185'> +3.1636798e+01 </wgt>
<wgt id='rwgt_186'> +1.6052062e+01 </wgt>
<wgt id='rwgt_187'> +2.8722098e+01 </wgt>
<wgt id='rwgt_188'> +1.9357662e+01 </wgt>
<wgt id='rwgt_189'> +3.4780935e+01 </wgt>
<wgt id='rwgt_190'> +2.1354617e+01 </wgt>
<wgt id='rwgt_191'> +2.6036835e+01 </wgt>
<wgt id='rwgt_192'> +1.7590144e+01 </wgt>
<wgt id='rwgt_193'> +2.1354617e+01 </wgt>
<wgt id='rwgt_194'> +2.6036835e+01 </wgt>
<wgt id='rwgt_195'> +3.1636798e+01 </wgt>
<wgt id='rwgt_196'> +1.6052062e+01 </wgt>
<wgt id='rwgt_197'> +2.3581008e+01 </wgt>
<wgt id='rwgt_198'> +2.3581008e+01 </wgt>
<wgt id='rwgt_199'> +3.4780935e+01 </wgt>
<wgt id='rwgt_200'> +1.4743417e+01 </wgt>
<wgt id='rwgt_201'> +2.6036835e+01 </wgt>
<wgt id='rwgt_202'> +2.1354617e+01 </wgt>
<wgt id='rwgt_203'> +3.8154508e+01 </wgt>
<wgt id='rwgt_204'> +1.9357662e+01 </wgt>
<wgt id='rwgt_205'> +2.8722098e+01 </wgt>
<wgt id='rwgt_206'> +1.6052062e+01 </wgt>
<wgt id='rwgt_207'> +1.9357662e+01 </wgt>
<wgt id='rwgt_208'> +2.8722098e+01 </wgt>
<wgt id='rwgt_209'> +3.4780935e+01 </wgt>
<wgt id='rwgt_210'> +1.4743417e+01 </wgt>
<wgt id='rwgt_211'> +2.1354617e+01 </wgt>
<wgt id='rwgt_212'> +2.6036835e+01 </wgt>
<wgt id='rwgt_213'> +3.8154508e+01 </wgt>
<wgt id='rwgt_214'> +1.3664208e+01 </wgt>
<wgt id='rwgt_215'> +2.3581008e+01 </wgt>
<wgt id='rwgt_216'> +2.3581008e+01 </wgt>
<wgt id='rwgt_217'> +4.1757517e+01 </wgt>
<wgt id='rwgt_218'> +1.7590144e+01 </wgt>
<wgt id='rwgt_219'> +3.1636798e+01 </wgt>
<wgt id='rwgt_220'> +2.1354617e+01 </wgt>
<wgt id='rwgt_221'> +2.6036835e+01 </wgt>
<wgt id='rwgt_222'> +1.9357662e+01 </wgt>
<wgt id='rwgt_223'> +2.8722098e+01 </wgt>
<wgt id='rwgt_224'> +1.7590144e+01 </wgt>
<wgt id='rwgt_225'> +3.1636798e+01 </wgt>
<wgt id='rwgt_226'> +2.3581008e+01 </wgt>
<wgt id='rwgt_227'> +1.6330193e+01 </wgt>
<wgt id='rwgt_228'> +1.9634195e+01 </wgt>
<wgt id='rwgt_229'> +1.9634195e+01 </wgt>
<wgt id='rwgt_230'> +2.3855942e+01 </wgt>
<wgt id='rwgt_231'> +1.5022347e+01 </wgt>
<wgt id='rwgt_232'> +2.1630350e+01 </wgt>
<wgt id='rwgt_233'> +1.7867476e+01 </wgt>
<wgt id='rwgt_234'> +2.6310970e+01 </wgt>
<wgt id='rwgt_235'> +1.3943937e+01 </wgt>
<wgt id='rwgt_236'> +2.3855942e+01 </wgt>
<wgt id='rwgt_237'> +1.6330193e+01 </wgt>
<wgt id='rwgt_238'> +2.8995435e+01 </wgt>
<wgt id='rwgt_239'> +1.7867476e+01 </wgt>
<wgt id='rwgt_240'> +2.1630350e+01 </wgt>
<wgt id='rwgt_241'> +1.5022347e+01 </wgt>
<wgt id='rwgt_242'> +1.7867476e+01 </wgt>
<wgt id='rwgt_243'> +2.1630350e+01 </wgt>
<wgt id='rwgt_244'> +2.6310970e+01 </wgt>
<wgt id='rwgt_245'> +1.3943937e+01 </wgt>
<wgt id='rwgt_246'> +1.9634195e+01 </wgt>
<wgt id='rwgt_247'> +1.9634195e+01 </wgt>
<wgt id='rwgt_248'> +2.8995435e+01 </wgt>
<wgt id='rwgt_249'> +1.3094963e+01 </wgt>
<wgt id='rwgt_250'> +2.1630350e+01 </wgt>
<wgt id='rwgt_251'> +1.7867476e+01 </wgt>
<wgt id='rwgt_252'> +3.1909335e+01 </wgt>
<wgt id='rwgt_253'> +1.6330193e+01 </wgt>
<wgt id='rwgt_254'> +2.3855942e+01 </wgt>
<wgt id='rwgt_255'> +1.3943937e+01 </wgt>
<wgt id='rwgt_256'> +1.6330193e+01 </wgt>
<wgt id='rwgt_257'> +2.3855942e+01 </wgt>
<wgt id='rwgt_258'> +2.8995435e+01 </wgt>
<wgt id='rwgt_259'> +1.3094963e+01 </wgt>
<wgt id='rwgt_260'> +1.7867476e+01 </wgt>
<wgt id='rwgt_261'> +2.1630350e+01 </wgt>
<wgt id='rwgt_262'> +3.1909335e+01 </wgt>
<wgt id='rwgt_263'> +1.2475426e+01 </wgt>
<wgt id='rwgt_264'> +1.9634195e+01 </wgt>
<wgt id='rwgt_265'> +1.9634195e+01 </wgt>
<wgt id='rwgt_266'> +3.5052673e+01 </wgt>
<wgt id='rwgt_267'> +1.5022347e+01 </wgt>
<wgt id='rwgt_268'> +2.6310970e+01 </wgt>
<wgt id='rwgt_269'> +1.7867476e+01 </wgt>
<wgt id='rwgt_270'> +2.1630350e+01 </wgt>
<wgt id='rwgt_271'> +1.6330193e+01 </wgt>
<wgt id='rwgt_272'> +2.3855942e+01 </wgt>
<wgt id='rwgt_273'> +1.5022347e+01 </wgt>
<wgt id='rwgt_274'> +2.6310970e+01 </wgt>
<wgt id='rwgt_275'> +1.9634195e+01 </wgt>
<wgt id='rwgt_276'> +2.0137178e+01 </wgt>
<wgt id='rwgt_277'> +2.4544392e+01 </wgt>
<wgt id='rwgt_278'> +2.4544392e+01 </wgt>
<wgt id='rwgt_279'> +2.9869351e+01 </wgt>
<wgt id='rwgt_280'> +1.8277725e+01 </wgt>
<wgt id='rwgt_281'> +2.7092153e+01 </wgt>
<wgt id='rwgt_282'> +2.2226067e+01 </wgt>
<wgt id='rwgt_283'> +3.2875986e+01 </wgt>
<wgt id='rwgt_284'> +1.6647709e+01 </wgt>
<wgt id='rwgt_285'> +2.9869351e+01 </wgt>
<wgt id='rwgt_286'> +2.0137178e+01 </wgt>
<wgt id='rwgt_287'> +3.6112056e+01 </wgt>
<wgt id='rwgt_288'> +2.2226067e+01 </wgt>
<wgt id='rwgt_289'> +2.7092153e+01 </wgt>
<wgt id='rwgt_290'> +1.8277725e+01 </wgt>
<wgt id='rwgt_291'> +2.2226067e+01 </wgt>
<wgt id='rwgt_292'> +2.7092153e+01 </wgt>
<wgt id='rwgt_293'> +3.2875986e+01 </wgt>
<wgt id='rwgt_294'> +1.6647709e+01 </wgt>
<wgt id='rwgt_295'> +2.4544392e+01 </wgt>
<wgt id='rwgt_296'> +2.4544392e+01 </wgt>
<wgt id='rwgt_297'> +3.6112056e+01 </wgt>
<wgt id='rwgt_298'> +1.5247129e+01 </wgt>
<wgt id='rwgt_299'> +2.7092153e+01 </wgt>
<wgt id='rwgt_300'> +2.2226067e+01 </wgt>
<wgt id='rwgt_301'> +3.9577564e+01 </wgt>
<wgt id='rwgt_302'> +2.0137178e+01 </wgt>
<wgt id='rwgt_303'> +2.9869351e+01 </wgt>
<wgt id='rwgt_304'> +1.6647709e+01 </wgt>
<wgt id='rwgt_305'> +2.0137178e+01 </wgt>
<wgt id='rwgt_306'> +2.9869351e+01 </wgt>
<wgt id='rwgt_307'> +3.6112056e+01 </wgt>
<wgt id='rwgt_308'> +1.5247129e+01 </wgt>
<wgt id='rwgt_309'> +2.2226067e+01 </wgt>
<wgt id='rwgt_310'> +2.7092153e+01 </wgt>
<wgt id='rwgt_311'> +3.9577564e+01 </wgt>
<wgt id='rwgt_312'> +1.4075986e+01 </wgt>
<wgt id='rwgt_313'> +2.4544392e+01 </wgt>
<wgt id='rwgt_314'> +2.4544392e+01 </wgt>
<wgt id='rwgt_315'> +4.3272507e+01 </wgt>
<wgt id='rwgt_316'> +1.8277725e+01 </wgt>
<wgt id='rwgt_317'> +3.2875986e+01 </wgt>
<wgt id='rwgt_318'> +2.2226067e+01 </wgt>
<wgt id='rwgt_319'> +2.7092153e+01 </wgt>
<wgt id='rwgt_320'> +2.0137178e+01 </wgt>
<wgt id='rwgt_321'> +2.9869351e+01 </wgt>
<wgt id='rwgt_322'> +1.8277725e+01 </wgt>
<wgt id='rwgt_323'> +3.2875986e+01 </wgt>
<wgt id='rwgt_324'> +2.4544392e+01 </wgt>
<wgt id='rwgt_325'> +1.7972653e+01 </wgt>
<wgt id='rwgt_326'> +2.1828261e+01 </wgt>
<wgt id='rwgt_327'> +2.1828261e+01 </wgt>
<wgt id='rwgt_328'> +2.6601614e+01 </wgt>
<wgt id='rwgt_329'> +1.6389004e+01 </wgt>
<wgt id='rwgt_330'> +2.4100219e+01 </wgt>
<wgt id='rwgt_331'> +1.9785739e+01 </wgt>
<wgt id='rwgt_332'> +2.9332445e+01 </wgt>
<wgt id='rwgt_333'> +1.5034790e+01 </wgt>
<wgt id='rwgt_334'> +2.6601614e+01 </wgt>
<wgt id='rwgt_335'> +1.7972653e+01 </wgt>
<wgt id='rwgt_336'> +3.2292713e+01 </wgt>
<wgt id='rwgt_337'> +1.9785739e+01 </wgt>
<wgt id='rwgt_338'> +2.4100219e+01 </wgt>
<wgt id='rwgt_339'> +1.6389004e+01 </wgt>
<wgt id='rwgt_340'> +1.9785739e+01 </wgt>
<wgt id='rwgt_341'> +2.4100219e+01 </wgt>
<wgt id='rwgt_342'> +2.9332445e+01 </wgt>
<wgt id='rwgt_343'> +1.5034790e+01 </wgt>
<wgt id='rwgt_344'> +2.1828261e+01 </wgt>
<wgt id='rwgt_345'> +2.1828261e+01 </wgt>
<wgt id='rwgt_346'> +3.2292713e+01 </wgt>
<wgt id='rwgt_347'> +1.3910014e+01 </wgt>
<wgt id='rwgt_348'> +2.4100219e+01 </wgt>
<wgt id='rwgt_349'> +1.9785739e+01 </wgt>
<wgt id='rwgt_350'> +3.5482417e+01 </wgt>
<wgt id='rwgt_351'> +1.7972653e+01 </wgt>
<wgt id='rwgt_352'> +2.6601614e+01 </wgt>
<wgt id='rwgt_353'> +1.5034790e+01 </wgt>
<wgt id='rwgt_354'> +1.7972653e+01 </wgt>
<wgt id='rwgt_355'> +2.6601614e+01 </wgt>
<wgt id='rwgt_356'> +3.2292713e+01 </wgt>
<wgt id='rwgt_357'> +1.3910014e+01 </wgt>
<wgt id='rwgt_358'> +1.9785739e+01 </wgt>
<wgt id='rwgt_359'> +2.4100219e+01 </wgt>
<wgt id='rwgt_360'> +3.5482417e+01 </wgt>
<wgt id='rwgt_361'> +1.3014674e+01 </wgt>
<wgt id='rwgt_362'> +2.1828261e+01 </wgt>
<wgt id='rwgt_363'> +2.1828261e+01 </wgt>
<wgt id='rwgt_364'> +3.8901557e+01 </wgt>
<wgt id='rwgt_365'> +1.6389004e+01 </wgt>
<wgt id='rwgt_366'> +2.9332445e+01 </wgt>
<wgt id='rwgt_367'> +1.9785739e+01 </wgt>
<wgt id='rwgt_368'> +2.4100219e+01 </wgt>
<wgt id='rwgt_369'> +1.7972653e+01 </wgt>
<wgt id='rwgt_370'> +2.6601614e+01 </wgt>
<wgt id='rwgt_371'> +1.6389004e+01 </wgt>
<wgt id='rwgt_372'> +2.9332445e+01 </wgt>
<wgt id='rwgt_373'> +2.1828261e+01 </wgt>
</rwgt>
</event>
<event npLO=" -1 " npNLO=" 0 ">
 7      0 +1.9963618e+01 3.74479470e+01 7.54677110e-03 1.11497960e-01
       21 -1    0    0  502  501 +0.0000000000e+00 +0.0000000000e+00 +1.3963733000e+01 1.3963733000e+01 0.0000000000e+00 0.0000e+00 9.0000e+00
        2 -1    0    0  501    0 +0.0000000000e+00 +0.0000000000e+00 -1.0593813000e+03 1.0593813000e+03 0.0000000000e+00 0.0000e+00 9.0000e+00
       24  2    1    2    0    0 -9.8541905000e+01 -4.4792919000e+01 -5.3827398000e+02 5.5477823000e+02 7.9517871000e+01 0.0000e+00 0.0000e+00
      -15  1    3    3    0    0 -7.5800486000e+00 -2.5715605000e+01 -1.1638884000e+02 1.1943664000e+02 0.0000000000e+00 0.0000e+00 9.0000e+00
       16  1    3    3    0    0 +2.4498284000e+00 -1.7469541000e+00 -1.2301623000e-01 3.0114184000e+00 0.0000000000e+00 0.0000e+00 9.0000e+00
       22  1    3    3    0    0 -9.3411685000e+01 -1.7330360000e+01 -4.2176213000e+02 4.3233017000e+02 0.0000000000e+00 0.0000e+00 9.0000e+00
        1  1    1    2  502    0 +9.8541905000e+01 +4.4792919000e+01 -5.0714353000e+02 5.1856675000e+02 0.0000000000e+00 0.0000e+00 9.0000e+00
#aMCatNLO 2  0  0  1  2 0.12832830E+03 0.00000000E+00 -9  6  0 0.00000000E+00 0.00000000E+00 0.00000000E+00 0.00000000E+00 0.00000000E+00
<rwgt>
<wgt id='1001'> +1.9964000e+01 </wgt>
<wgt id='1002'> +1.8176000e+01 </wgt>
<wgt id='1003'> +2.2151000e+01 </wgt>
<wgt id='1004'> +2.0709000e+01 </wgt>
<wgt id='1005'> +1.8854000e+01 </wgt>
<wgt id='1006'> +2.2978000e+01 </wgt>
<wgt id='1007'> +1.8932000e+01 </wgt>
<wgt id='1008'> +1.7236000e+01 </wgt>
<wgt id='1009'> +2.1006000e+01 </wgt>
<wgt id='1010'> +1.9964000e+01 </wgt>
<wgt id='1011'> +1.8972000e+01 </wgt>
<wgt id='1012'> +1.9775000e+01 </wgt>
<wgt id='1013'> +2.0329000e+01 </wgt>
<wgt id='1014'> +2.0121000e+01 </wgt>
<wgt id='1015'> +1.9397000e+01 </wgt>
<wgt id='1016'> +2.0040000e+01 </wgt>
<wgt id='1017'> +2.0051000e+01 </wgt>
<wgt id='1018'> +1.9646000e+01 </wgt>
<wgt id='1019'> +1.9982000e+01 </wgt>
<wgt id='1020'> +1.9972000e+01 </wgt>
<wgt id='1021'> +2.0583000e+01 </wgt>
<wgt id='1022'> +2.0272000e+01 </wgt>
<wgt id='1023'> +2.0274000e+01 </wgt>
<wgt id='1024'> +2.0073000e+01 </wgt>
<wgt id='1025'> +2.0028000e+01 </wgt>
<wgt id='1026'> +1.9651000e+01 </wgt>
<wgt id='1027'> +1.9643000e+01 </wgt>
<wgt id='1028'> +1.9298000e+01 </wgt>
<wgt id='1029'> +1.9846000e+01 </wgt>
<wgt id='1030'> +1.9477000e+01 </wgt>
<wgt id='1031'> +2.0347000e+01 </wgt>
<wgt id='1032'> +1.9923000e+01 </wgt>
<wgt id='1033'> +2.0958000e+01 </wgt>
<wgt id='1034'> +1.9981000e+01 </wgt>
<wgt id='1035'> +2.0071000e+01 </wgt>
<wgt id='1036'> +1.9945000e+01 </wgt>
<wgt id='1037'> +1.9391000e+01 </wgt>
<wgt id='1038'> +2.0001000e+01 </wgt>
<wgt id='1039'> +1.9686000e+01 </wgt>
<wgt id='1040'> +2.0066000e+01 </wgt>
<wgt id='1041'> +1.9957000e+01 </wgt>
<wgt id='1042'> +2.0284000e+01 </wgt>
<wgt id='1043'> +2.0121000e+01 </wgt>
<wgt id='1044'> +2.0281000e+01 </wgt>
<wgt id='1045'> +2.0352000e+01 </wgt>
<wgt id='1046'> +1.9950000e+01 </wgt>
<wgt id='1047'> +1.9706000e+01 </wgt>
<wgt id='1048'> +1.9863000e+01 </wgt>
<wgt id='1049'> +1.9489000e+01 </wgt>
<wgt id='1050'> +2.0100000e+01 </wgt>
<wgt id='1051'> +2.0110000e+01 </wgt>
<wgt id='1052'> +2.0201000e+01 </wgt>
<wgt id='1053'> +2.0242000e+01 </wgt>
<wgt id='1054'> +1.9938000e+01 </wgt>
<wgt id='1055'> +2.0048000e+01 </wgt>
<wgt id='1056'> +2.0075000e+01 </wgt>
<wgt id='1057'> +1.9693000e+01 </wgt>
<wgt id='1058'> +1.9570000e+01 </wgt>
<wgt id='1059'> +2.0051000e+01 </wgt>
<wgt id='1060'> +2.0093000e+01 </wgt>
<wgt id='1061'> +2.0237000e+01 </wgt>
<wgt id='1062'> +2.0170000e+01 </wgt>
<wgt id='1063'> +2.0389000e+01 </wgt>
<wgt id='1064'> +1.9906000e+01 </wgt>
<wgt id='1065'> +2.0081000e+01 </wgt>
<wgt id='1066'> +1.9417000e+01 </wgt>
<wgt id='1067'> +2.0121000e+01 </wgt>
<wgt id='1068'> +2.0232000e+01 </wgt>
<wgt id='1069'> +1.9714000e+01 </wgt>
<wgt id='1070'> +1.9924000e+01 </wgt>
<wgt id='1071'> +2.0021000e+01 </wgt>
<wgt id='1072'> +1.9906000e+01 </wgt>
<wgt id='1073'> +2.0579000e+01 </wgt>
<wgt id='1074'> +1.9167000e+01 </wgt>
<wgt id='1075'> +2.0255000e+01 </wgt>
<wgt id='1076'> +1.9982000e+01 </wgt>
<wgt id='1077'> +2.0533000e+01 </wgt>
<wgt id='1078'> +1.9913000e+01 </wgt>
<wgt id='1079'> +1.9817000e+01 </wgt>
<wgt id='1080'> +1.9678000e+01 </wgt>
<wgt id='1081'> +2.0325000e+01 </wgt>
<wgt id='1082'> +2.0272000e+01 </wgt>
<wgt id='1083'> +1.9621000e+01 </wgt>
<wgt id='1084'> +2.0504000e+01 </wgt>
<wgt id='1085'> +1.9863000e+01 </wgt>
<wgt id='1086'> +2.0488000e+01 </wgt>
<wgt id='1087'> +2.0078000e+01 </wgt>
<wgt id='1088'> +2.0343000e+01 </wgt>
<wgt id='1089'> +2.0013000e+01 </wgt>
<wgt id='1090'> +1.9884000e+01 </wgt>
<wgt id='1091'> +2.0190000e+01 </wgt>
<wgt id='1092'> +2.0156000e+01 </wgt>
<wgt id='1093'> +1.9304000e+01 </wgt>
<wgt id='1094'> +1.9822000e+01 </wgt>
<wgt id='1095'> +1.9770000e+01 </wgt>
<wgt id='1096'> +1.9775000e+01 </wgt>
<wgt id='1097'> +2.0165000e+01 </wgt>
<wgt id='1098'> +2.0170000e+01 </wgt>
<wgt id='1099'> +1.9534000e+01 </wgt>
<wgt id='1100'> +1.9942000e+01 </wgt>
<wgt id='1101'> +1.9589000e+01 </wgt>
<wgt id='1102'> +1.9967000e+01 </wgt>
<wgt id='1103'> +1.9528000e+01 </wgt>
<wgt id='1104'> +2.0159000e+01 </wgt>
<wgt id='1105'> +1.9436000e+01 </wgt>
<wgt id='1106'> +1.9998000e+01 </wgt>
<wgt id='1107'> +1.9708000e+01 </wgt>
<wgt id='1108'> +2.0510000e+01 </wgt>
<wgt id='1109'> +1.9966000e+01 </wgt>
<wgt id='1110'> +1.9315000e+01 </wgt>
<wgt id='1111'> +1.9833000e+01 </wgt>
<wgt id='1112'> +2.0024000e+01 </wgt>
<wgt id='rwgt_1'> +1.9957342e+01 </wgt>
<wgt id='rwgt_2'> +1.9951075e+01 </wgt>
<wgt id='rwgt_3'> +1.9961376e+01 </wgt>
<wgt id='rwgt_4'> +1.9948841e+01 </wgt>
<wgt id='rwgt_5'> +1.9947207e+01 </wgt>
<wgt id='rwgt_6'> +1.9966010e+01 </wgt>
<wgt id='rwgt_7'> +1.8453545e+01 </wgt>
<wgt id='rwgt_8'> +2.2010841e+01 </wgt>
<wgt id='rwgt_9'> +1.7509753e+01 </wgt>
<wgt id='rwgt_10'> +2.4624345e+01 </wgt>
<wgt id='rwgt_11'> +1.7122531e+01 </wgt>
<wgt id='rwgt_12'> +2.7794418e+01 </wgt>
<wgt id='rwgt_13'> +1.8453545e+01 </wgt>
<wgt id='rwgt_14'> +2.2010841e+01 </wgt>
<wgt id='rwgt_15'> +1.7509753e+01 </wgt>
<wgt id='rwgt_16'> +2.4624345e+01 </wgt>
<wgt id='rwgt_17'> +1.7122531e+01 </wgt>
<wgt id='rwgt_18'> +2.7794418e+01 </wgt>
<wgt id='rwgt_19'> +2.0010534e+01 </wgt>
<wgt id='rwgt_20'> +1.9897666e+01 </wgt>
<wgt id='rwgt_21'> +2.0067545e+01 </wgt>
<wgt id='rwgt_22'> +1.9841808e+01 </wgt>
<wgt id='rwgt_23'> +2.0124939e+01 </wgt>
<wgt id='rwgt_24'> +1.9786334e+01 </wgt>
<wgt id='rwgt_25'> +1.9939824e+01 </wgt>
<wgt id='rwgt_26'> +2.0524563e+01 </wgt>
<wgt id='rwgt_27'> +2.0482309e+01 </wgt>
<wgt id='rwgt_28'> +2.1651788e+01 </wgt>
<wgt id='rwgt_29'> +2.1581365e+01 </wgt>
<wgt id='rwgt_30'> +2.3335584e+01 </wgt>
<wgt id='rwgt_31'> +1.7527222e+01 </wgt>
<wgt id='rwgt_32'> +1.9957342e+01 </wgt>
<wgt id='rwgt_33'> +1.9957342e+01 </wgt>
<wgt id='rwgt_34'> +2.4613743e+01 </wgt>
<wgt id='rwgt_35'> +1.7147018e+01 </wgt>
<wgt id='rwgt_36'> +2.2007257e+01 </wgt>
<wgt id='rwgt_37'> +1.8463997e+01 </wgt>
<wgt id='rwgt_38'> +2.7776799e+01 </wgt>
<wgt id='rwgt_39'> +1.7323383e+01 </wgt>
<wgt id='rwgt_40'> +2.4613743e+01 </wgt>
<wgt id='rwgt_41'> +1.7527222e+01 </wgt>
<wgt id='rwgt_42'> +3.1496425e+01 </wgt>
<wgt id='rwgt_43'> +1.8463997e+01 </wgt>
<wgt id='rwgt_44'> +2.2007257e+01 </wgt>
<wgt id='rwgt_45'> +1.7147018e+01 </wgt>
<wgt id='rwgt_46'> +1.8463997e+01 </wgt>
<wgt id='rwgt_47'> +2.2007257e+01 </wgt>
<wgt id='rwgt_48'> +2.7776799e+01 </wgt>
<wgt id='rwgt_49'> +1.7323383e+01 </wgt>
<wgt id='rwgt_50'> +1.9957342e+01 </wgt>
<wgt id='rwgt_51'> +1.9957342e+01 </wgt>
<wgt id='rwgt_52'> +3.1496425e+01 </wgt>
<wgt id='rwgt_53'> +1.8056319e+01 </wgt>
<wgt id='rwgt_54'> +2.2007257e+01 </wgt>
<wgt id='rwgt_55'> +1.8463997e+01 </wgt>
<wgt id='rwgt_56'> +3.5772621e+01 </wgt>
<wgt id='rwgt_57'> +1.7527222e+01 </wgt>
<wgt id='rwgt_58'> +2.4613743e+01 </wgt>
<wgt id='rwgt_59'> +1.7323383e+01 </wgt>
<wgt id='rwgt_60'> +1.7527222e+01 </wgt>
<wgt id='rwgt_61'> +2.4613743e+01 </wgt>
<wgt id='rwgt_62'> +3.1496425e+01 </wgt>
<wgt id='rwgt_63'> +1.8056319e+01 </wgt>
<wgt id='rwgt_64'> +1.8463997e+01 </wgt>
<wgt id='rwgt_65'> +2.2007257e+01 </wgt>
<wgt id='rwgt_66'> +3.5772621e+01 </wgt>
<wgt id='rwgt_67'> +1.9345825e+01 </wgt>
<wgt id='rwgt_68'> +1.9957342e+01 </wgt>
<wgt id='rwgt_69'> +1.9957342e+01 </wgt>
<wgt id='rwgt_70'> +4.0605388e+01 </wgt>
<wgt id='rwgt_71'> +1.7147018e+01 </wgt>
<wgt id='rwgt_72'> +2.7776799e+01 </wgt>
<wgt id='rwgt_73'> +1.8463997e+01 </wgt>
<wgt id='rwgt_74'> +2.2007257e+01 </wgt>
<wgt id='rwgt_75'> +1.7527222e+01 </wgt>
<wgt id='rwgt_76'> +2.4613743e+01 </wgt>
<wgt id='rwgt_77'> +1.7147018e+01 </wgt>
<wgt id='rwgt_78'> +2.7776799e+01 </wgt>
<wgt id='rwgt_79'> +1.9957342e+01 </wgt>
<wgt id='rwgt_80'> +1.7492884e+01 </wgt>
<wgt id='rwgt_81'> +1.9951075e+01 </wgt>
<wgt id='rwgt_82'> +1.9951075e+01 </wgt>
<wgt id='rwgt_83'> +2.4635546e+01 </wgt>
<wgt id='rwgt_84'> +1.7098644e+01 </wgt>
<wgt id='rwgt_85'> +2.2015025e+01 </wgt>
<wgt id='rwgt_86'> +1.8443694e+01 </wgt>
<wgt id='rwgt_87'> +2.7812638e+01 </wgt>
<wgt id='rwgt_88'> +1.7260974e+01 </wgt>
<wgt id='rwgt_89'> +2.4635546e+01 </wgt>
<wgt id='rwgt_90'> +1.7492884e+01 </wgt>
<wgt id='rwgt_91'> +3.1546299e+01 </wgt>
<wgt id='rwgt_92'> +1.8443694e+01 </wgt>
<wgt id='rwgt_93'> +2.2015025e+01 </wgt>
<wgt id='rwgt_94'> +1.7098644e+01 </wgt>
<wgt id='rwgt_95'> +1.8443694e+01 </wgt>
<wgt id='rwgt_96'> +2.2015025e+01 </wgt>
<wgt id='rwgt_97'> +2.7812638e+01 </wgt>
<wgt id='rwgt_98'> +1.7260974e+01 </wgt>
<wgt id='rwgt_99'> +1.9951075e+01 </wgt>
<wgt id='rwgt_100'> +1.9951075e+01 </wgt>
<wgt id='rwgt_101'> +3.1546299e+01 </wgt>
<wgt id='rwgt_102'> +1.7979875e+01 </wgt>
<wgt id='rwgt_103'> +2.2015025e+01 </wgt>
<wgt id='rwgt_104'> +1.8443694e+01 </wgt>
<wgt id='rwgt_105'> +3.5836531e+01 </wgt>
<wgt id='rwgt_106'> +1.7492884e+01 </wgt>
<wgt id='rwgt_107'> +2.4635546e+01 </wgt>
<wgt id='rwgt_108'> +1.7260974e+01 </wgt>
<wgt id='rwgt_109'> +1.7492884e+01 </wgt>
<wgt id='rwgt_110'> +2.4635546e+01 </wgt>
<wgt id='rwgt_111'> +3.1546299e+01 </wgt>
<wgt id='rwgt_112'> +1.7979875e+01 </wgt>
<wgt id='rwgt_113'> +1.8443694e+01 </wgt>
<wgt id='rwgt_114'> +2.2015025e+01 </wgt>
<wgt id='rwgt_115'> +3.5836531e+01 </wgt>
<wgt id='rwgt_116'> +1.9255345e+01 </wgt>
<wgt id='rwgt_117'> +1.9951075e+01 </wgt>
<wgt id='rwgt_118'> +1.9951075e+01 </wgt>
<wgt id='rwgt_119'> +4.0683333e+01 </wgt>
<wgt id='rwgt_120'> +1.7098644e+01 </wgt>
<wgt id='rwgt_121'> +2.7812638e+01 </wgt>
<wgt id='rwgt_122'> +1.8443694e+01 </wgt>
<wgt id='rwgt_123'> +2.2015025e+01 </wgt>
<wgt id='rwgt_124'> +1.7492884e+01 </wgt>
<wgt id='rwgt_125'> +2.4635546e+01 </wgt>
<wgt id='rwgt_126'> +1.7098644e+01 </wgt>
<wgt id='rwgt_127'> +2.7812638e+01 </wgt>
<wgt id='rwgt_128'> +1.9951075e+01 </wgt>
<wgt id='rwgt_129'> +1.7545291e+01 </wgt>
<wgt id='rwgt_130'> +1.9961376e+01 </wgt>
<wgt id='rwgt_131'> +1.9961376e+01 </wgt>
<wgt id='rwgt_132'> +2.4603742e+01 </wgt>
<wgt id='rwgt_133'> +1.7172105e+01 </wgt>
<wgt id='rwgt_134'> +2.2004274e+01 </wgt>
<wgt id='rwgt_135'> +1.8475049e+01 </wgt>
<wgt id='rwgt_136'> +2.7759780e+01 </wgt>
<wgt id='rwgt_137'> +1.7355488e+01 </wgt>
<wgt id='rwgt_138'> +2.4603742e+01 </wgt>
<wgt id='rwgt_139'> +1.7545291e+01 </wgt>
<wgt id='rwgt_140'> +3.1472388e+01 </wgt>
<wgt id='rwgt_141'> +1.8475049e+01 </wgt>
<wgt id='rwgt_142'> +2.2004274e+01 </wgt>
<wgt id='rwgt_143'> +1.7172105e+01 </wgt>
<wgt id='rwgt_144'> +1.8475049e+01 </wgt>
<wgt id='rwgt_145'> +2.2004274e+01 </wgt>
<wgt id='rwgt_146'> +2.7759780e+01 </wgt>
<wgt id='rwgt_147'> +1.7355488e+01 </wgt>
<wgt id='rwgt_148'> +1.9961376e+01 </wgt>
<wgt id='rwgt_149'> +1.9961376e+01 </wgt>
<wgt id='rwgt_150'> +3.1472388e+01 </wgt>
<wgt id='rwgt_151'> +1.8095442e+01 </wgt>
<wgt id='rwgt_152'> +2.2004274e+01 </wgt>
<wgt id='rwgt_153'> +1.8475049e+01 </wgt>
<wgt id='rwgt_154'> +3.5741567e+01 </wgt>
<wgt id='rwgt_155'> +1.7545291e+01 </wgt>
<wgt id='rwgt_156'> +2.4603742e+01 </wgt>
<wgt id='rwgt_157'> +1.7355488e+01 </wgt>
<wgt id='rwgt_158'> +1.7545291e+01 </wgt>
<wgt id='rwgt_159'> +2.4603742e+01 </wgt>
<wgt id='rwgt_160'> +3.1472388e+01 </wgt>
<wgt id='rwgt_161'> +1.8095442e+01 </wgt>
<wgt id='rwgt_162'> +1.8475049e+01 </wgt>
<wgt id='rwgt_163'> +2.2004274e+01 </wgt>
<wgt id='rwgt_164'> +3.5741567e+01 </wgt>
<wgt id='rwgt_165'> +1.9391965e+01 </wgt>
<wgt id='rwgt_166'> +1.9961376e+01 </wgt>
<wgt id='rwgt_167'> +1.9961376e+01 </wgt>
<wgt id='rwgt_168'> +4.0567316e+01 </wgt>
<wgt id='rwgt_169'> +1.7172105e+01 </wgt>
<wgt id='rwgt_170'> +2.7759780e+01 </wgt>
<wgt id='rwgt_171'> +1.8475049e+01 </wgt>
<wgt id='rwgt_172'> +2.2004274e+01 </wgt>
<wgt id='rwgt_173'> +1.7545291e+01 </wgt>
<wgt id='rwgt_174'> +2.4603742e+01 </wgt>
<wgt id='rwgt_175'> +1.7172105e+01 </wgt>
<wgt id='rwgt_176'> +2.7759780e+01 </wgt>
<wgt id='rwgt_177'> +1.9961376e+01 </wgt>
<wgt id='rwgt_178'> +1.7476615e+01 </wgt>
<wgt id='rwgt_179'> +1.9948841e+01 </wgt>
<wgt id='rwgt_180'> +1.9948841e+01 </wgt>
<wgt id='rwgt_181'> +2.4647348e+01 </wgt>
<wgt id='rwgt_182'> +1.7075357e+01 </wgt>
<wgt id='rwgt_183'> +2.2019809e+01 </wgt>
<wgt id='rwgt_184'> +1.8434443e+01 </wgt>
<wgt id='rwgt_185'> +2.7831457e+01 </wgt>
<wgt id='rwgt_186'> +1.7230670e+01 </wgt>
<wgt id='rwgt_187'> +2.4647348e+01 </wgt>
<wgt id='rwgt_188'> +1.7476615e+01 </wgt>
<wgt id='rwgt_189'> +3.1572136e+01 </wgt>
<wgt id='rwgt_190'> +1.8434443e+01 </wgt>
<wgt id='rwgt_191'> +2.2019809e+01 </wgt>
<wgt id='rwgt_192'> +1.7075357e+01 </wgt>
<wgt id='rwgt_193'> +1.8434443e+01 </wgt>
<wgt id='rwgt_194'> +2.2019809e+01 </wgt>
<wgt id='rwgt_195'> +2.7831457e+01 </wgt>
<wgt id='rwgt_196'> +1.7230670e+01 </wgt>
<wgt id='rwgt_197'> +1.9948841e+01 </wgt>
<wgt id='rwgt_198'> +1.9948841e+01 </wgt>
<wgt id='rwgt_199'> +3.1572136e+01 </wgt>
<wgt id='rwgt_200'> +1.7942552e+01 </wgt>
<wgt id='rwgt_201'> +2.2019809e+01 </wgt>
<wgt id='rwgt_202'> +1.8434443e+01 </wgt>
<wgt id='rwgt_203'> +3.5869386e+01 </wgt>
<wgt id='rwgt_204'> +1.7476615e+01 </wgt>
<wgt id='rwgt_205'> +2.4647348e+01 </wgt>
<wgt id='rwgt_206'> +1.7230670e+01 </wgt>
<wgt id='rwgt_207'> +1.7476615e+01 </wgt>
<wgt id='rwgt_208'> +2.4647348e+01 </wgt>
<wgt id='rwgt_209'> +3.1572136e+01 </wgt>
<wgt id='rwgt_210'> +1.7942552e+01 </wgt>
<wgt id='rwgt_211'> +1.8434443e+01 </wgt>
<wgt id='rwgt_212'> +2.2019809e+01 </wgt>
<wgt id='rwgt_213'> +3.5869386e+01 </wgt>
<wgt id='rwgt_214'> +1.9211006e+01 </wgt>
<wgt id='rwgt_215'> +1.9948841e+01 </wgt>
<wgt id='rwgt_216'> +1.9948841e+01 </wgt>
<wgt id='rwgt_217'> +4.0723206e+01 </wgt>
<wgt id='rwgt_218'> +1.7075357e+01 </wgt>
<wgt id='rwgt_219'> +2.7831457e+01 </wgt>
<wgt id='rwgt_220'> +1.8434443e+01 </wgt>
<wgt id='rwgt_221'> +2.2019809e+01 </wgt>
<wgt id='rwgt_222'> +1.7476615e+01 </wgt>
<wgt id='rwgt_223'> +2.4647348e+01 </wgt>
<wgt id='rwgt_224'> +1.7075357e+01 </wgt>
<wgt id='rwgt_225'> +2.7831457e+01 </wgt>
<wgt id='rwgt_226'> +1.9948841e+01 </wgt>
<wgt id='rwgt_227'> +1.7563961e+01 </wgt>
<wgt id='rwgt_228'> +1.9966010e+01 </wgt>
<wgt id='rwgt_229'> +1.9966010e+01 </wgt>
<wgt id='rwgt_230'> +2.4594340e+01 </wgt>
<wgt id='rwgt_231'> +1.7197792e+01 </wgt>
<wgt id='rwgt_232'> +2.2001890e+01 </wgt>
<wgt id='rwgt_233'> +1.8486700e+01 </wgt>
<wgt id='rwgt_234'> +2.7743361e+01 </wgt>
<wgt id='rwgt_235'> +1.7388193e+01 </wgt>
<wgt id='rwgt_236'> +2.4594340e+01 </wgt>
<wgt id='rwgt_237'> +1.7563961e+01 </wgt>
<wgt id='rwgt_238'> +3.1448951e+01 </wgt>
<wgt id='rwgt_239'> +1.8486700e+01 </wgt>
<wgt id='rwgt_240'> +2.2001890e+01 </wgt>
<wgt id='rwgt_241'> +1.7197792e+01 </wgt>
<wgt id='rwgt_242'> +1.8486700e+01 </wgt>
<wgt id='rwgt_243'> +2.2001890e+01 </wgt>
<wgt id='rwgt_244'> +2.7743361e+01 </wgt>
<wgt id='rwgt_245'> +1.7388193e+01 </wgt>
<wgt id='rwgt_246'> +1.9966010e+01 </wgt>
<wgt id='rwgt_247'> +1.9966010e+01 </wgt>
<wgt id='rwgt_248'> +3.1448951e+01 </wgt>
<wgt id='rwgt_249'> +1.8135164e+01 </wgt>
<wgt id='rwgt_250'> +2.2001890e+01 </wgt>
<wgt id='rwgt_251'> +1.8486700e+01 </wgt>
<wgt id='rwgt_252'> +3.5711112e+01 </wgt>
<wgt id='rwgt_253'> +1.7563961e+01 </wgt>
<wgt id='rwgt_254'> +2.4594340e+01 </wgt>
<wgt id='rwgt_255'> +1.7388193e+01 </wgt>
<wgt id='rwgt_256'> +1.7563961e+01 </wgt>
<wgt id='rwgt_257'> +2.4594340e+01 </wgt>
<wgt id='rwgt_258'> +3.1448951e+01 </wgt>
<wgt id='rwgt_259'> +1.8135164e+01 </wgt>
<wgt id='rwgt_260'> +1.8486700e+01 </wgt>
<wgt id='rwgt_261'> +2.2001890e+01 </wgt>
<wgt id='rwgt_262'> +3.5711112e+01 </wgt>
<wgt id='rwgt_263'> +1.9438706e+01 </wgt>
<wgt id='rwgt_264'> +1.9966010e+01 </wgt>
<wgt id='rwgt_265'> +1.9966010e+01 </wgt>
<wgt id='rwgt_266'> +4.0529844e+01 </wgt>
<wgt id='rwgt_267'> +1.7197792e+01 </wgt>
<wgt id='rwgt_268'> +2.7743361e+01 </wgt>
<wgt id='rwgt_269'> +1.8486700e+01 </wgt>
<wgt id='rwgt_270'> +2.2001890e+01 </wgt>
<wgt id='rwgt_271'> +1.7563961e+01 </wgt>
<wgt id='rwgt_272'> +2.4594340e+01 </wgt>
<wgt id='rwgt_273'> +1.7197792e+01 </wgt>
<wgt id='rwgt_274'> +2.7743361e+01 </wgt>
<wgt id='rwgt_275'> +1.9966010e+01 </wgt>
<wgt id='rwgt_276'> +1.7460946e+01 </wgt>
<wgt id='rwgt_277'> +1.9947207e+01 </wgt>
<wgt id='rwgt_278'> +1.9947207e+01 </wgt>
<wgt id='rwgt_279'> +2.4659750e+01 </wgt>
<wgt id='rwgt_280'> +1.7052670e+01 </wgt>
<wgt id='rwgt_281'> +2.2025194e+01 </wgt>
<wgt id='rwgt_282'> +1.8425791e+01 </wgt>
<wgt id='rwgt_283'> +2.7850877e+01 </wgt>
<wgt id='rwgt_284'> +1.7200965e+01 </wgt>
<wgt id='rwgt_285'> +2.4659750e+01 </wgt>
<wgt id='rwgt_286'> +1.7460946e+01 </wgt>
<wgt id='rwgt_287'> +3.1598574e+01 </wgt>
<wgt id='rwgt_288'> +1.8425791e+01 </wgt>
<wgt id='rwgt_289'> +2.2025194e+01 </wgt>
<wgt id='rwgt_290'> +1.7052670e+01 </wgt>
<wgt id='rwgt_291'> +1.8425791e+01 </wgt>
<wgt id='rwgt_292'> +2.2025194e+01 </wgt>
<wgt id='rwgt_293'> +2.7850877e+01 </wgt>
<wgt id='rwgt_294'> +1.7200965e+01 </wgt>
<wgt id='rwgt_295'> +1.9947207e+01 </wgt>
<wgt id='rwgt_296'> +1.9947207e+01 </wgt>
<wgt id='rwgt_297'> +3.1598574e+01 </wgt>
<wgt id='rwgt_298'> +1.7905830e+01 </wgt>
<wgt id='rwgt_299'> +2.2025194e+01 </wgt>
<wgt id='rwgt_300'> +1.8425791e+01 </wgt>
<wgt id='rwgt_301'> +3.5902841e+01 </wgt>
<wgt id='rwgt_302'> +1.7460946e+01 </wgt>
<wgt id='rwgt_303'> +2.4659750e+01 </wgt>
<wgt id='rwgt_304'> +1.7200965e+01 </wgt>
<wgt id='rwgt_305'> +1.7460946e+01 </wgt>
<wgt id='rwgt_306'> +2.4659750e+01 </wgt>
<wgt id='rwgt_307'> +3.1598574e+01 </wgt>
<wgt id='rwgt_308'> +1.7905830e+01 </wgt>
<wgt id='rwgt_309'> +1.8425791e+01 </wgt>
<wgt id='rwgt_310'> +2.2025194e+01 </wgt>
<wgt id='rwgt_311'> +3.5902841e+01 </wgt>
<wgt id='rwgt_312'> +1.9167266e+01 </wgt>
<wgt id='rwgt_313'> +1.9947207e+01 </wgt>
<wgt id='rwgt_314'> +1.9947207e+01 </wgt>
<wgt id='rwgt_315'> +4.0763678e+01 </wgt>
<wgt id='rwgt_316'> +1.7052670e+01 </wgt>
<wgt id='rwgt_317'> +2.7850877e+01 </wgt>
<wgt id='rwgt_318'> +1.8425791e+01 </wgt>
<wgt id='rwgt_319'> +2.2025194e+01 </wgt>
<wgt id='rwgt_320'> +1.7460946e+01 </wgt>
<wgt id='rwgt_321'> +2.4659750e+01 </wgt>
<wgt id='rwgt_322'> +1.7052670e+01 </wgt>
<wgt id='rwgt_323'> +2.7850877e+01 </wgt>
<wgt id='rwgt_324'> +1.9947207e+01 </wgt>
<wgt id='rwgt_325'> +1.7509753e+01 </wgt>
<wgt id='rwgt_326'> +1.9953908e+01 </wgt>
<wgt id='rwgt_327'> +1.9953908e+01 </wgt>
<wgt id='rwgt_328'> +2.4624345e+01 </wgt>
<wgt id='rwgt_329'> +1.7122531e+01 </wgt>
<wgt id='rwgt_330'> +2.2010841e+01 </wgt>
<wgt id='rwgt_331'> +1.8453545e+01 </wgt>
<wgt id='rwgt_332'> +2.7794418e+01 </wgt>
<wgt id='rwgt_333'> +1.7291879e+01 </wgt>
<wgt id='rwgt_334'> +2.4624345e+01 </wgt>
<wgt id='rwgt_335'> +1.7509753e+01 </wgt>
<wgt id='rwgt_336'> +3.1521062e+01 </wgt>
<wgt id='rwgt_337'> +1.8453545e+01 </wgt>
<wgt id='rwgt_338'> +2.2010841e+01 </wgt>
<wgt id='rwgt_339'> +1.7122531e+01 </wgt>
<wgt id='rwgt_340'> +1.8453545e+01 </wgt>
<wgt id='rwgt_341'> +2.2010841e+01 </wgt>
<wgt id='rwgt_342'> +2.7794418e+01 </wgt>
<wgt id='rwgt_343'> +1.7291879e+01 </wgt>
<wgt id='rwgt_344'> +1.9953908e+01 </wgt>
<wgt id='rwgt_345'> +1.9953908e+01 </wgt>
<wgt id='rwgt_346'> +3.1521062e+01 </wgt>
<wgt id='rwgt_347'> +1.8017797e+01 </wgt>
<wgt id='rwgt_348'> +2.2010841e+01 </wgt>
<wgt id='rwgt_349'> +1.8453545e+01 </wgt>
<wgt id='rwgt_350'> +3.5804276e+01 </wgt>
<wgt id='rwgt_351'> +1.7509753e+01 </wgt>
<wgt id='rwgt_352'> +2.4624345e+01 </wgt>
<wgt id='rwgt_353'> +1.7291879e+01 </wgt>
<wgt id='rwgt_354'> +1.7509753e+01 </wgt>
<wgt id='rwgt_355'> +2.4624345e+01 </wgt>
<wgt id='rwgt_356'> +3.1521062e+01 </wgt>
<wgt id='rwgt_357'> +1.8017797e+01 </wgt>
<wgt id='rwgt_358'> +1.8453545e+01 </wgt>
<wgt id='rwgt_359'> +2.2010841e+01 </wgt>
<wgt id='rwgt_360'> +3.5804276e+01 </wgt>
<wgt id='rwgt_361'> +1.9300285e+01 </wgt>
<wgt id='rwgt_362'> +1.9953908e+01 </wgt>
<wgt id='rwgt_363'> +1.9953908e+01 </wgt>
<wgt id='rwgt_364'> +4.0644060e+01 </wgt>
<wgt id='rwgt_365'> +1.7122531e+01 </wgt>
<wgt id='rwgt_366'> +2.7794418e+01 </wgt>
<wgt id='rwgt_367'> +1.8453545e+01 </wgt>
<wgt id='rwgt_368'> +2.2010841e+01 </wgt>
<wgt id='rwgt_369'> +1.7509753e+01 </wgt>
<wgt id='rwgt_370'> +2.4624345e+01 </wgt>
<wgt id='rwgt_371'> +1.7122531e+01 </wgt>
<wgt id='rwgt_372'> +2.7794418e+01 </wgt>
<wgt id='rwgt_373'> +1.9953908e+01 </wgt>
</rwgt>
</event>
<event npLO=" -1 " npNLO=" 1 ">
 7      1 -1.9963618e+01 1.16579190e+01 7.54677110e-03 1.71469330e-01
        1 -1    0    0  502    0 +0.0000000000e+00 +0.0000000000e+00 +2.6351719000e+01 2.6351719000e+01 0.0000000000e+00 0.0000e+00 9.0000e+00
       -2 -1    0    0    0  501 -0.0000000000e+00 -0.0000000000e+00 -7.2344302000e+02 7.2344302000e+02 0.0000000000e+00 0.0000e+00 9.0000e+00
      -24  2    1    2    0    0 +8.8361227000e+01 +5.3439036000e+01 -2.2486523000e+02 2.6026368000e+02 8.0680698000e+01 0.0000e+00 0.0000e+00
       13  1    3    3    0    0 +1.0919111000e+01 +4.6005698000e+01 -4.9701310000e+01 6.8600084000e+01 0.0000000000e+00 0.0000e+00 9.0000e+00
      -14  1    3    3    0    0 +7.7442116000e+01 +7.4333380000e+00 -1.7516392000e+02 1.9166360000e+02 0.0000000000e+00 0.0000e+00 9.0000e+00
       22  1    1    2    0    0 -9.8805733000e+01 -5.8617777000e+01 -3.9286727000e+02 4.0932055000e+02 0.0000000000e+00 0.0000e+00 9.0000e+00
       21  1    1    2  502  501 +1.0444506000e+01 +5.1787414000e+00 -7.9358795000e+01 8.0210507000e+01 0.0000000000e+00 0.0000e+00 9.0000e+00
#aMCatNLO 1  0  0  6  1 0.64693645E+00 0.00000000E+00 -9  7  0 0.00000000E+00 0.00000000E+00 0.00000000E+00 0.00000000E+00 0.00000000E+00
<rwgt>
<wgt id='1001'> -1.9963000e+01 </wgt>
<wgt id='1002'> -1.4896000e+01 </wgt>
<wgt id='1003'> -2.8138000e+01 </wgt>
<wgt id='1004'> -2.0685000e+01 </wgt>
<wgt id='1005'> -1.5434000e+01 </wgt>
<wgt id='1006'> -2.9153000e+01 </wgt>
<wgt id='1007'> -1.8993000e+01 </wgt>
<wgt id='1008'> -1.4172000e+01 </wgt>
<wgt id='1009'> -2.6770000e+01 </wgt>
<wgt id='1010'> -1.9963000e+01 </wgt>
<wgt id='1011'> -1.8421000e+01 </wgt>
<wgt id='1012'> -1.9456000e+01 </wgt>
<wgt id='1013'> -2.0964000e+01 </wgt>
<wgt id='1014'> -2.0366000e+01 </wgt>
<wgt id='1015'> -1.9055000e+01 </wgt>
<wgt id='1016'> -1.8341000e+01 </wgt>
<wgt id='1017'> -2.0371000e+01 </wgt>
<wgt id='1018'> -2.0326000e+01 </wgt>
<wgt id='1019'> -1.9953000e+01 </wgt>
<wgt id='1020'> -2.0311000e+01 </wgt>
<wgt id='1021'> -1.9212000e+01 </wgt>
<wgt id='1022'> -1.9680000e+01 </wgt>
<wgt id='1023'> -2.0160000e+01 </wgt>
<wgt id='1024'> -2.0368000e+01 </wgt>
<wgt id='1025'> -1.9927000e+01 </wgt>
<wgt id='1026'> -1.9740000e+01 </wgt>
<wgt id='1027'> -1.9828000e+01 </wgt>
<wgt id='1028'> -1.9050000e+01 </wgt>
<wgt id='1029'> -1.9726000e+01 </wgt>
<wgt id='1030'> -2.1175000e+01 </wgt>
<wgt id='1031'> -2.0170000e+01 </wgt>
<wgt id='1032'> -2.1178000e+01 </wgt>
<wgt id='1033'> -2.0496000e+01 </wgt>
<wgt id='1034'> -2.1510000e+01 </wgt>
<wgt id='1035'> -2.0389000e+01 </wgt>
<wgt id='1036'> -1.9648000e+01 </wgt>
<wgt id='1037'> -2.0471000e+01 </wgt>
<wgt id='1038'> -1.9849000e+01 </wgt>
<wgt id='1039'> -2.0095000e+01 </wgt>
<wgt id='1040'> -2.0677000e+01 </wgt>
<wgt id='1041'> -2.1951000e+01 </wgt>
<wgt id='1042'> -1.9888000e+01 </wgt>
<wgt id='1043'> -2.0790000e+01 </wgt>
<wgt id='1044'> -1.9915000e+01 </wgt>
<wgt id='1045'> -2.1607000e+01 </wgt>
<wgt id='1046'> -1.9325000e+01 </wgt>
<wgt id='1047'> -2.0632000e+01 </wgt>
<wgt id='1048'> -1.9058000e+01 </wgt>
<wgt id='1049'> -2.0285000e+01 </wgt>
<wgt id='1050'> -1.9953000e+01 </wgt>
<wgt id='1051'> -1.9494000e+01 </wgt>
<wgt id='1052'> -1.9263000e+01 </wgt>
<wgt id='1053'> -2.0692000e+01 </wgt>
<wgt id='1054'> -1.9809000e+01 </wgt>
<wgt id='1055'> -2.0080000e+01 </wgt>
<wgt id='1056'> -1.9251000e+01 </wgt>
<wgt id='1057'> -1.8933000e+01 </wgt>
<wgt id='1058'> -2.0101000e+01 </wgt>
<wgt id='1059'> -2.0795000e+01 </wgt>
<wgt id='1060'> -2.0218000e+01 </wgt>
<wgt id='1061'> -1.9846000e+01 </wgt>
<wgt id='1062'> -1.9607000e+01 </wgt>
<wgt id='1063'> -1.9643000e+01 </wgt>
<wgt id='1064'> -2.0034000e+01 </wgt>
<wgt id='1065'> -2.0544000e+01 </wgt>
<wgt id='1066'> -1.9443000e+01 </wgt>
<wgt id='1067'> -2.0123000e+01 </wgt>
<wgt id='1068'> -1.9053000e+01 </wgt>
<wgt id='1069'> -2.0635000e+01 </wgt>
<wgt id='1070'> -1.9888000e+01 </wgt>
<wgt id='1071'> -1.9687000e+01 </wgt>
<wgt id='1072'> -1.9687000e+01 </wgt>
<wgt id='1073'> -1.8831000e+01 </wgt>
<wgt id='1074'> -1.9313000e+01 </wgt>
<wgt id='1075'> -2.0265000e+01 </wgt>
<wgt id='1076'> -2.0661000e+01 </wgt>
<wgt id='1077'> -2.0282000e+01 </wgt>
<wgt id='1078'> -2.0697000e+01 </wgt>
<wgt id='1079'> -2.0489000e+01 </wgt>
<wgt id='1080'> -2.0474000e+01 </wgt>
<wgt id='1081'> -1.9518000e+01 </wgt>
<wgt id='1082'> -1.8264000e+01 </wgt>
<wgt id='1083'> -1.8282000e+01 </wgt>
<wgt id='1084'> -1.9207000e+01 </wgt>
<wgt id='1085'> -1.9879000e+01 </wgt>
<wgt id='1086'> -1.9097000e+01 </wgt>
<wgt id='1087'> -1.9781000e+01 </wgt>
<wgt id='1088'> -1.9828000e+01 </wgt>
<wgt id='1089'> -1.9079000e+01 </wgt>
<wgt id='1090'> -2.0588000e+01 </wgt>
<wgt id='1091'> -2.0264000e+01 </wgt>
<wgt id='1092'> -2.0489000e+01 </wgt>
<wgt id='1093'> -1.9028000e+01 </wgt>
<wgt id='1094'> -2.1183000e+01 </wgt>
<wgt id='1095'> -1.9809000e+01 </wgt>
<wgt id='1096'> -1.9707000e+01 </wgt>
<wgt id='1097'> -1.9194000e+01 </wgt>
<wgt id='1098'> -1.9479000e+01 </wgt>
<wgt id='1099'> -1.9278000e+01 </wgt>
<wgt id='1100'> -2.1098000e+01 </wgt>
<wgt id='1101'> -2.0163000e+01 </wgt>
<wgt id='1102'> -2.0120000e+01 </wgt>
<wgt id='1103'> -1.9972000e+01 </wgt>
<wgt id='1104'> -1.9188000e+01 </wgt>
<wgt id='1105'> -2.0051000e+01 </wgt>
<wgt id='1106'> -2.0137000e+01 </wgt>
<wgt id='1107'> -2.1033000e+01 </wgt>
<wgt id='1108'> -2.0564000e+01 </wgt>
<wgt id='1109'> -1.9372000e+01 </wgt>
<wgt id='1110'> -2.0689000e+01 </wgt>
<wgt id='1111'> -1.9361000e+01 </wgt>
<wgt id='1112'> -2.0400000e+01 </wgt>
<wgt id='rwgt_1'> -1.5628812e+01 </wgt>
<wgt id='rwgt_2'> -1.5245659e+01 </wgt>
<wgt id='rwgt_3'> -1.8133212e+01 </wgt>
<wgt id='rwgt_4'> -1.7366906e+01 </wgt>
<wgt id='rwgt_5'> -2.1030036e+01 </wgt>
<wgt id='rwgt_6'> -2.2179494e+01 </wgt>
<wgt id='rwgt_7'> -2.1311030e+01 </wgt>
<wgt id='rwgt_8'> -1.4465545e+01 </wgt>
<wgt id='rwgt_9'> -3.4399753e+01 </wgt>
<wgt id='rwgt_10'> -2.0708782e+01 </wgt>
<wgt id='rwgt_11'> -5.3932461e+01 </wgt>
<wgt id='rwgt_12'> -3.3396006e+01 </wgt>
<wgt id='rwgt_13'> -2.1311030e+01 </wgt>
<wgt id='rwgt_14'> -1.4465545e+01 </wgt>
<wgt id='rwgt_15'> -3.4399753e+01 </wgt>
<wgt id='rwgt_16'> -2.0708782e+01 </wgt>
<wgt id='rwgt_17'> -5.3932461e+01 </wgt>
<wgt id='rwgt_18'> -3.3396006e+01 </wgt>
<wgt id='rwgt_19'> -1.3501689e+01 </wgt>
<wgt id='rwgt_20'> -1.6817705e+01 </wgt>
<wgt id='rwgt_21'> -1.3323887e+01 </wgt>
<wgt id='rwgt_22'> -1.9955921e+01 </wgt>
<wgt id='rwgt_23'> -1.4132891e+01 </wgt>
<wgt id='rwgt_24'> -2.4080941e+01 </wgt>
<wgt id='rwgt_25'> -1.3677146e+01 </wgt>
<wgt id='rwgt_26'> -2.2099429e+01 </wgt>
<wgt id='rwgt_27'> -1.9131983e+01 </wgt>
<wgt id='rwgt_28'> -3.5976548e+01 </wgt>
<wgt id='rwgt_29'> -3.1030805e+01 </wgt>
<wgt id='rwgt_30'> -5.6297653e+01 </wgt>
<wgt id='rwgt_31'> -4.0673857e+01 </wgt>
<wgt id='rwgt_32'> -1.5628812e+01 </wgt>
<wgt id='rwgt_33'> -1.5628812e+01 </wgt>
<wgt id='rwgt_34'> -1.6359713e+01 </wgt>
<wgt id='rwgt_35'> -6.2862359e+01 </wgt>
<wgt id='rwgt_36'> -1.2772269e+01 </wgt>
<wgt id='rwgt_37'> -2.4929342e+01 </wgt>
<wgt id='rwgt_38'> -2.6391142e+01 </wgt>
<wgt id='rwgt_39'> -9.1494848e+01 </wgt>
<wgt id='rwgt_40'> -1.6359713e+01 </wgt>
<wgt id='rwgt_41'> -4.0673857e+01 </wgt>
<wgt id='rwgt_42'> -4.2866558e+01 </wgt>
<wgt id='rwgt_43'> -2.4929342e+01 </wgt>
<wgt id='rwgt_44'> -1.2772269e+01 </wgt>
<wgt id='rwgt_45'> -6.2862359e+01 </wgt>
<wgt id='rwgt_46'> -2.4929342e+01 </wgt>
<wgt id='rwgt_47'> -1.2772269e+01 </wgt>
<wgt id='rwgt_48'> -2.6391142e+01 </wgt>
<wgt id='rwgt_49'> -9.1494848e+01 </wgt>
<wgt id='rwgt_50'> -1.5628812e+01 </wgt>
<wgt id='rwgt_51'> -1.5628812e+01 </wgt>
<wgt id='rwgt_52'> -4.2866558e+01 </wgt>
<wgt id='rwgt_53'> -1.2657132e+02 </wgt>
<wgt id='rwgt_54'> -1.2772269e+01 </wgt>
<wgt id='rwgt_55'> -2.4929342e+01 </wgt>
<wgt id='rwgt_56'> -6.5785961e+01 </wgt>
<wgt id='rwgt_57'> -4.0673857e+01 </wgt>
<wgt id='rwgt_58'> -1.6359713e+01 </wgt>
<wgt id='rwgt_59'> -9.1494848e+01 </wgt>
<wgt id='rwgt_60'> -4.0673857e+01 </wgt>
<wgt id='rwgt_61'> -1.6359713e+01 </wgt>
<wgt id='rwgt_62'> -4.2866558e+01 </wgt>
<wgt id='rwgt_63'> -1.2657132e+02 </wgt>
<wgt id='rwgt_64'> -2.4929342e+01 </wgt>
<wgt id='rwgt_65'> -1.2772269e+01 </wgt>
<wgt id='rwgt_66'> -6.5785961e+01 </wgt>
<wgt id='rwgt_67'> -1.6809178e+02 </wgt>
<wgt id='rwgt_68'> -1.5628812e+01 </wgt>
<wgt id='rwgt_69'> -1.5628812e+01 </wgt>
<wgt id='rwgt_70'> -9.5149350e+01 </wgt>
<wgt id='rwgt_71'> -6.2862359e+01 </wgt>
<wgt id='rwgt_72'> -2.6391142e+01 </wgt>
<wgt id='rwgt_73'> -2.4929342e+01 </wgt>
<wgt id='rwgt_74'> -1.2772269e+01 </wgt>
<wgt id='rwgt_75'> -4.0673857e+01 </wgt>
<wgt id='rwgt_76'> -1.6359713e+01 </wgt>
<wgt id='rwgt_77'> -6.2862359e+01 </wgt>
<wgt id='rwgt_78'> -2.6391142e+01 </wgt>
<wgt id='rwgt_79'> -1.5628812e+01 </wgt>
<wgt id='rwgt_80'> -2.9667530e+01 </wgt>
<wgt id='rwgt_81'> -1.5245659e+01 </wgt>
<wgt id='rwgt_82'> -1.5245659e+01 </wgt>
<wgt id='rwgt_83'> -2.6599734e+01 </wgt>
<wgt id='rwgt_84'> -4.6544445e+01 </wgt>
<wgt id='rwgt_85'> -1.7700704e+01 </wgt>
<wgt id='rwgt_86'> -1.9234601e+01 </wgt>
<wgt id='rwgt_87'> -4.1942751e+01 </wgt>
<wgt id='rwgt_88'> -6.9865346e+01 </wgt>
<wgt id='rwgt_89'> -2.6599734e+01 </wgt>
<wgt id='rwgt_90'> -2.9667530e+01 </wgt>
<wgt id='rwgt_91'> -6.3729754e+01 </wgt>
<wgt id='rwgt_92'> -1.9234601e+01 </wgt>
<wgt id='rwgt_93'> -1.7700704e+01 </wgt>
<wgt id='rwgt_94'> -4.6544445e+01 </wgt>
<wgt id='rwgt_95'> -1.9234601e+01 </wgt>
<wgt id='rwgt_96'> -1.7700704e+01 </wgt>
<wgt id='rwgt_97'> -4.1942751e+01 </wgt>
<wgt id='rwgt_98'> -6.9865346e+01 </wgt>
<wgt id='rwgt_99'> -1.5245659e+01 </wgt>
<wgt id='rwgt_100'> -1.5245659e+01 </wgt>
<wgt id='rwgt_101'> -6.3729754e+01 </wgt>
<wgt id='rwgt_102'> -9.9630234e+01 </wgt>
<wgt id='rwgt_103'> -1.7700704e+01 </wgt>
<wgt id='rwgt_104'> -1.9234601e+01 </wgt>
<wgt id='rwgt_105'> -9.1960744e+01 </wgt>
<wgt id='rwgt_106'> -2.9667530e+01 </wgt>
<wgt id='rwgt_107'> -2.6599734e+01 </wgt>
<wgt id='rwgt_108'> -6.9865346e+01 </wgt>
<wgt id='rwgt_109'> -2.9667530e+01 </wgt>
<wgt id='rwgt_110'> -2.6599734e+01 </wgt>
<wgt id='rwgt_111'> -6.3729754e+01 </wgt>
<wgt id='rwgt_112'> -9.9630234e+01 </wgt>
<wgt id='rwgt_113'> -1.9234601e+01 </wgt>
<wgt id='rwgt_114'> -1.7700704e+01 </wgt>
<wgt id='rwgt_115'> -9.1960744e+01 </wgt>
<wgt id='rwgt_116'> -1.3583911e+02 </wgt>
<wgt id='rwgt_117'> -1.5245659e+01 </wgt>
<wgt id='rwgt_118'> -1.5245659e+01 </wgt>
<wgt id='rwgt_119'> -1.2663572e+02 </wgt>
<wgt id='rwgt_120'> -4.6544445e+01 </wgt>
<wgt id='rwgt_121'> -4.1942751e+01 </wgt>
<wgt id='rwgt_122'> -1.9234601e+01 </wgt>
<wgt id='rwgt_123'> -1.7700704e+01 </wgt>
<wgt id='rwgt_124'> -2.9667530e+01 </wgt>
<wgt id='rwgt_125'> -2.6599734e+01 </wgt>
<wgt id='rwgt_126'> -4.6544445e+01 </wgt>
<wgt id='rwgt_127'> -4.1942751e+01 </wgt>
<wgt id='rwgt_128'> -1.5245659e+01 </wgt>
<wgt id='rwgt_129'> -4.8489845e+01 </wgt>
<wgt id='rwgt_130'> -1.8133212e+01 </wgt>
<wgt id='rwgt_131'> -1.8133212e+01 </wgt>
<wgt id='rwgt_132'> -1.3552525e+01 </wgt>
<wgt id='rwgt_133'> -7.3334140e+01 </wgt>
<wgt id='rwgt_134'> -1.2620876e+01 </wgt>
<wgt id='rwgt_135'> -3.0089535e+01 </wgt>
<wgt id='rwgt_136'> -2.0928161e+01 </wgt>
<wgt id='rwgt_137'> -1.0462242e+02 </wgt>
<wgt id='rwgt_138'> -1.3552525e+01 </wgt>
<wgt id='rwgt_139'> -4.8489845e+01 </wgt>
<wgt id='rwgt_140'> -3.4747784e+01 </wgt>
<wgt id='rwgt_141'> -3.0089535e+01 </wgt>
<wgt id='rwgt_142'> -1.2620876e+01 </wgt>
<wgt id='rwgt_143'> -7.3334140e+01 </wgt>
<wgt id='rwgt_144'> -3.0089535e+01 </wgt>
<wgt id='rwgt_145'> -1.2620876e+01 </wgt>
<wgt id='rwgt_146'> -2.0928161e+01 </wgt>
<wgt id='rwgt_147'> -1.0462242e+02 </wgt>
<wgt id='rwgt_148'> -1.8133212e+01 </wgt>
<wgt id='rwgt_149'> -1.8133212e+01 </wgt>
<wgt id='rwgt_150'> -3.4747784e+01 </wgt>
<wgt id='rwgt_151'> -1.4235469e+02 </wgt>
<wgt id='rwgt_152'> -1.2620876e+01 </wgt>
<wgt id='rwgt_153'> -3.0089535e+01 </wgt>
<wgt id='rwgt_154'> -5.5011393e+01 </wgt>
<wgt id='rwgt_155'> -4.8489845e+01 </wgt>
<wgt id='rwgt_156'> -1.3552525e+01 </wgt>
<wgt id='rwgt_157'> -1.0462242e+02 </wgt>
<wgt id='rwgt_158'> -4.8489845e+01 </wgt>
<wgt id='rwgt_159'> -1.3552525e+01 </wgt>
<wgt id='rwgt_160'> -3.4747784e+01 </wgt>
<wgt id='rwgt_161'> -1.4235469e+02 </wgt>
<wgt id='rwgt_162'> -3.0089535e+01 </wgt>
<wgt id='rwgt_163'> -1.2620876e+01 </wgt>
<wgt id='rwgt_164'> -5.5011393e+01 </wgt>
<wgt id='rwgt_165'> -1.8653095e+02 </wgt>
<wgt id='rwgt_166'> -1.8133212e+01 </wgt>
<wgt id='rwgt_167'> -1.8133212e+01 </wgt>
<wgt id='rwgt_168'> -8.1718988e+01 </wgt>
<wgt id='rwgt_169'> -7.3334140e+01 </wgt>
<wgt id='rwgt_170'> -2.0928161e+01 </wgt>
<wgt id='rwgt_171'> -3.0089535e+01 </wgt>
<wgt id='rwgt_172'> -1.2620876e+01 </wgt>
<wgt id='rwgt_173'> -4.8489845e+01 </wgt>
<wgt id='rwgt_174'> -1.3552525e+01 </wgt>
<wgt id='rwgt_175'> -7.3334140e+01 </wgt>
<wgt id='rwgt_176'> -2.0928161e+01 </wgt>
<wgt id='rwgt_177'> -1.8133212e+01 </wgt>
<wgt id='rwgt_178'> -2.6477190e+01 </wgt>
<wgt id='rwgt_179'> -1.7366906e+01 </wgt>
<wgt id='rwgt_180'> -1.7366906e+01 </wgt>
<wgt id='rwgt_181'> -3.4032568e+01 </wgt>
<wgt id='rwgt_182'> -4.0698311e+01 </wgt>
<wgt id='rwgt_183'> -2.2477744e+01 </wgt>
<wgt id='rwgt_184'> -1.8700055e+01 </wgt>
<wgt id='rwgt_185'> -5.2031379e+01 </wgt>
<wgt id='rwgt_186'> -6.1363419e+01 </wgt>
<wgt id='rwgt_187'> -3.4032568e+01 </wgt>
<wgt id='rwgt_188'> -2.6477190e+01 </wgt>
<wgt id='rwgt_189'> -7.6474176e+01 </wgt>
<wgt id='rwgt_190'> -1.8700055e+01 </wgt>
<wgt id='rwgt_191'> -2.2477744e+01 </wgt>
<wgt id='rwgt_192'> -4.0698311e+01 </wgt>
<wgt id='rwgt_193'> -1.8700055e+01 </wgt>
<wgt id='rwgt_194'> -2.2477744e+01 </wgt>
<wgt id='rwgt_195'> -5.2031379e+01 </wgt>
<wgt id='rwgt_196'> -6.1363419e+01 </wgt>
<wgt id='rwgt_197'> -1.7366906e+01 </wgt>
<wgt id='rwgt_198'> -1.7366906e+01 </wgt>
<wgt id='rwgt_199'> -7.6474176e+01 </wgt>
<wgt id='rwgt_200'> -8.8472513e+01 </wgt>
<wgt id='rwgt_201'> -2.2477744e+01 </wgt>
<wgt id='rwgt_202'> -1.8700055e+01 </wgt>
<wgt id='rwgt_203'> -1.0736096e+02 </wgt>
<wgt id='rwgt_204'> -2.6477190e+01 </wgt>
<wgt id='rwgt_205'> -3.4032568e+01 </wgt>
<wgt id='rwgt_206'> -6.1363419e+01 </wgt>
<wgt id='rwgt_207'> -2.6477190e+01 </wgt>
<wgt id='rwgt_208'> -3.4032568e+01 </wgt>
<wgt id='rwgt_209'> -7.6474176e+01 </wgt>
<wgt id='rwgt_210'> -8.8472513e+01 </wgt>
<wgt id='rwgt_211'> -1.8700055e+01 </wgt>
<wgt id='rwgt_212'> -2.2477744e+01 </wgt>
<wgt id='rwgt_213'> -1.0736096e+02 </wgt>
<wgt id='rwgt_214'> -1.2202559e+02 </wgt>
<wgt id='rwgt_215'> -1.7366906e+01 </wgt>
<wgt id='rwgt_216'> -1.7366906e+01 </wgt>
<wgt id='rwgt_217'> -1.4469173e+02 </wgt>
<wgt id='rwgt_218'> -4.0698311e+01 </wgt>
<wgt id='rwgt_219'> -5.2031379e+01 </wgt>
<wgt id='rwgt_220'> -1.8700055e+01 </wgt>
<wgt id='rwgt_221'> -2.2477744e+01 </wgt>
<wgt id='rwgt_222'> -2.6477190e+01 </wgt>
<wgt id='rwgt_223'> -3.4032568e+01 </wgt>
<wgt id='rwgt_224'> -4.0698311e+01 </wgt>
<wgt id='rwgt_225'> -5.2031379e+01 </wgt>
<wgt id='rwgt_226'> -1.7366906e+01 </wgt>
<wgt id='rwgt_227'> -5.7847714e+01 </wgt>
<wgt id='rwgt_228'> -2.2179494e+01 </wgt>
<wgt id='rwgt_229'> -2.2179494e+01 </wgt>
<wgt id='rwgt_230'> -1.2287220e+01 </wgt>
<wgt id='rwgt_231'> -8.5347803e+01 </wgt>
<wgt id='rwgt_232'> -1.4011364e+01 </wgt>
<wgt id='rwgt_233'> -3.6791611e+01 </wgt>
<wgt id='rwgt_234'> -1.7007063e+01 </wgt>
<wgt id='rwgt_235'> -1.1929188e+02 </wgt>
<wgt id='rwgt_236'> -1.2287220e+01 </wgt>
<wgt id='rwgt_237'> -5.7847714e+01 </wgt>
<wgt id='rwgt_238'> -2.8170892e+01 </wgt>
<wgt id='rwgt_239'> -3.6791611e+01 </wgt>
<wgt id='rwgt_240'> -1.4011364e+01 </wgt>
<wgt id='rwgt_241'> -8.5347803e+01 </wgt>
<wgt id='rwgt_242'> -3.6791611e+01 </wgt>
<wgt id='rwgt_243'> -1.4011364e+01 </wgt>
<wgt id='rwgt_244'> -1.7007063e+01 </wgt>
<wgt id='rwgt_245'> -1.1929188e+02 </wgt>
<wgt id='rwgt_246'> -2.2179494e+01 </wgt>
<wgt id='rwgt_247'> -2.2179494e+01 </wgt>
<wgt id='rwgt_248'> -2.8170892e+01 </wgt>
<wgt id='rwgt_249'> -1.5967994e+02 </wgt>
<wgt id='rwgt_250'> -1.4011364e+01 </wgt>
<wgt id='rwgt_251'> -3.6791611e+01 </wgt>
<wgt id='rwgt_252'> -4.5778707e+01 </wgt>
<wgt id='rwgt_253'> -5.7847714e+01 </wgt>
<wgt id='rwgt_254'> -1.2287220e+01 </wgt>
<wgt id='rwgt_255'> -1.1929188e+02 </wgt>
<wgt id='rwgt_256'> -5.7847714e+01 </wgt>
<wgt id='rwgt_257'> -1.2287220e+01 </wgt>
<wgt id='rwgt_258'> -2.8170892e+01 </wgt>
<wgt id='rwgt_259'> -1.5967994e+02 </wgt>
<wgt id='rwgt_260'> -3.6791611e+01 </wgt>
<wgt id='rwgt_261'> -1.4011364e+01 </wgt>
<wgt id='rwgt_262'> -4.5778707e+01 </wgt>
<wgt id='rwgt_263'> -2.0651199e+02 </wgt>
<wgt id='rwgt_264'> -2.2179494e+01 </wgt>
<wgt id='rwgt_265'> -2.2179494e+01 </wgt>
<wgt id='rwgt_266'> -6.9830508e+01 </wgt>
<wgt id='rwgt_267'> -8.5347803e+01 </wgt>
<wgt id='rwgt_268'> -1.7007063e+01 </wgt>
<wgt id='rwgt_269'> -3.6791611e+01 </wgt>
<wgt id='rwgt_270'> -1.4011364e+01 </wgt>
<wgt id='rwgt_271'> -5.7847714e+01 </wgt>
<wgt id='rwgt_272'> -1.2287220e+01 </wgt>
<wgt id='rwgt_273'> -8.5347803e+01 </wgt>
<wgt id='rwgt_274'> -1.7007063e+01 </wgt>
<wgt id='rwgt_275'> -2.2179494e+01 </wgt>
<wgt id='rwgt_276'> -2.4828732e+01 </wgt>
<wgt id='rwgt_277'> -2.1030036e+01 </wgt>
<wgt id='rwgt_278'> -2.1030036e+01 </wgt>
<wgt id='rwgt_279'> -4.3007285e+01 </wgt>
<wgt id='rwgt_280'> -3.6394059e+01 </wgt>
<wgt id='rwgt_281'> -2.8796667e+01 </wgt>
<wgt id='rwgt_282'> -1.9707390e+01 </wgt>
<wgt id='rwgt_283'> -6.3661889e+01 </wgt>
<wgt id='rwgt_284'> -5.4403373e+01 </wgt>
<wgt id='rwgt_285'> -4.3007285e+01 </wgt>
<wgt id='rwgt_286'> -2.4828732e+01 </wgt>
<wgt id='rwgt_287'> -9.0760480e+01 </wgt>
<wgt id='rwgt_288'> -1.9707390e+01 </wgt>
<wgt id='rwgt_289'> -2.8796667e+01 </wgt>
<wgt id='rwgt_290'> -3.6394059e+01 </wgt>
<wgt id='rwgt_291'> -1.9707390e+01 </wgt>
<wgt id='rwgt_292'> -2.8796667e+01 </wgt>
<wgt id='rwgt_293'> -6.3661889e+01 </wgt>
<wgt id='rwgt_294'> -5.4403373e+01 </wgt>
<wgt id='rwgt_295'> -2.1030036e+01 </wgt>
<wgt id='rwgt_296'> -2.1030036e+01 </wgt>
<wgt id='rwgt_297'> -9.0760480e+01 </wgt>
<wgt id='rwgt_298'> -7.8856674e+01 </wgt>
<wgt id='rwgt_299'> -2.8796667e+01 </wgt>
<wgt id='rwgt_300'> -1.9707390e+01 </wgt>
<wgt id='rwgt_301'> -1.2430306e+02 </wgt>
<wgt id='rwgt_302'> -2.4828732e+01 </wgt>
<wgt id='rwgt_303'> -4.3007285e+01 </wgt>
<wgt id='rwgt_304'> -5.4403373e+01 </wgt>
<wgt id='rwgt_305'> -2.4828732e+01 </wgt>
<wgt id='rwgt_306'> -4.3007285e+01 </wgt>
<wgt id='rwgt_307'> -9.0760480e+01 </wgt>
<wgt id='rwgt_308'> -7.8856674e+01 </wgt>
<wgt id='rwgt_309'> -1.9707390e+01 </wgt>
<wgt id='rwgt_310'> -2.8796667e+01 </wgt>
<wgt id='rwgt_311'> -1.2430306e+02 </wgt>
<wgt id='rwgt_312'> -1.0975396e+02 </wgt>
<wgt id='rwgt_313'> -2.1030036e+01 </wgt>
<wgt id='rwgt_314'> -2.1030036e+01 </wgt>
<wgt id='rwgt_315'> -1.6428962e+02 </wgt>
<wgt id='rwgt_316'> -3.6394059e+01 </wgt>
<wgt id='rwgt_317'> -6.3661889e+01 </wgt>
<wgt id='rwgt_318'> -1.9707390e+01 </wgt>
<wgt id='rwgt_319'> -2.8796667e+01 </wgt>
<wgt id='rwgt_320'> -2.4828732e+01 </wgt>
<wgt id='rwgt_321'> -4.3007285e+01 </wgt>
<wgt id='rwgt_322'> -3.6394059e+01 </wgt>
<wgt id='rwgt_323'> -6.3661889e+01 </wgt>
<wgt id='rwgt_324'> -2.1030036e+01 </wgt>
<wgt id='rwgt_325'> -3.4399753e+01 </wgt>
<wgt id='rwgt_326'> -1.4666295e+01 </wgt>
<wgt id='rwgt_327'> -1.4666295e+01 </wgt>
<wgt id='rwgt_328'> -2.0708782e+01 </wgt>
<wgt id='rwgt_329'> -5.3932461e+01 </wgt>
<wgt id='rwgt_330'> -1.4465545e+01 </wgt>
<wgt id='rwgt_331'> -2.1311030e+01 </wgt>
<wgt id='rwgt_332'> -3.3396006e+01 </wgt>
<wgt id='rwgt_333'> -7.9909156e+01 </wgt>
<wgt id='rwgt_334'> -2.0708782e+01 </wgt>
<wgt id='rwgt_335'> -3.4399753e+01 </wgt>
<wgt id='rwgt_336'> -5.2527215e+01 </wgt>
<wgt id='rwgt_337'> -2.1311030e+01 </wgt>
<wgt id='rwgt_338'> -1.4465545e+01 </wgt>
<wgt id='rwgt_339'> -5.3932461e+01 </wgt>
<wgt id='rwgt_340'> -2.1311030e+01 </wgt>
<wgt id='rwgt_341'> -1.4465545e+01 </wgt>
<wgt id='rwgt_342'> -3.3396006e+01 </wgt>
<wgt id='rwgt_343'> -7.9909156e+01 </wgt>
<wgt id='rwgt_344'> -1.4666295e+01 </wgt>
<wgt id='rwgt_345'> -1.4666295e+01 </wgt>
<wgt id='rwgt_346'> -5.2527215e+01 </wgt>
<wgt id='rwgt_347'> -1.1232984e+02 </wgt>
<wgt id='rwgt_348'> -1.4465545e+01 </wgt>
<wgt id='rwgt_349'> -2.1311030e+01 </wgt>
<wgt id='rwgt_350'> -7.8102411e+01 </wgt>
<wgt id='rwgt_351'> -3.4399753e+01 </wgt>
<wgt id='rwgt_352'> -2.0708782e+01 </wgt>
<wgt id='rwgt_353'> -7.9909156e+01 </wgt>
<wgt id='rwgt_354'> -3.4399753e+01 </wgt>
<wgt id='rwgt_355'> -2.0708782e+01 </wgt>
<wgt id='rwgt_356'> -5.2527215e+01 </wgt>
<wgt id='rwgt_357'> -1.1232984e+02 </wgt>
<wgt id='rwgt_358'> -2.1311030e+01 </wgt>
<wgt id='rwgt_359'> -1.4465545e+01 </wgt>
<wgt id='rwgt_360'> -7.8102411e+01 </wgt>
<wgt id='rwgt_361'> -1.5119450e+02 </wgt>
<wgt id='rwgt_362'> -1.4666295e+01 </wgt>
<wgt id='rwgt_363'> -1.4666295e+01 </wgt>
<wgt id='rwgt_364'> -1.1012159e+02 </wgt>
<wgt id='rwgt_365'> -5.3932461e+01 </wgt>
<wgt id='rwgt_366'> -3.3396006e+01 </wgt>
<wgt id='rwgt_367'> -2.1311030e+01 </wgt>
<wgt id='rwgt_368'> -1.4465545e+01 </wgt>
<wgt id='rwgt_369'> -3.4399753e+01 </wgt>
<wgt id='rwgt_370'> -2.0708782e+01 </wgt>
<wgt id='rwgt_371'> -5.3932461e+01 </wgt>
<wgt id='rwgt_372'> -3.3396006e+01 </wgt>
<wgt id='rwgt_373'> -1.4666295e+01 </wgt>
</rwgt>
</event>
<event npLO=" -1 " npNLO=" 1 ">
 8      1 +1.9963618e+01 4.02069850e+01 7.54677110e-03 1.30780610e-01
        1 -1    0    0  502    0 +0.0000000000e+00 +0.0000000000e+00 +6.2771605000e+02 6.2771605000e+02 0.0000000000e+00 0.0000e+00 9.0000e+00
       21 -1    0    0  503  501 +0.0000000000e+00 +0.0000000000e+00 -6.5615911000e+02 6.5615911000e+02 0.0000000000e+00 0.0000e+00 9.0000e+00
      -24  2    1    2    0    0 +2.7856863000e+02 -3.7407865000e+02 -2.3003135000e+02 5.2632598000e+02 8.1051190000e+01 0.0000e+00 0.0000e+00
       15  1    3    3    0    0 +1.1989428000e+02 -1.2252200000e+02 -4.9600261000e+01 1.7845578000e+02 0.0000000000e+00 0.0000e+00 9.0000e+00
      -16  1    3    3    0    0 +1.5867435000e+02 -2.5155665000e+02 -1.8043109000e+02 3.4787020000e+02 0.0000000000e+00 0.0000e+00 9.0000e+00
       22  1    1    2    0    0 -2.7594635000e+02 +4.0815485000e+02 +3.0338839000e+02 5.7860287000e+02 0.0000000000e+00 0.0000e+00 9.0000e+00
        2  1    1    2  503    0 -1.1696265000e+01 -4.6413287000e+01 -1.3454052000e+02 1.4280108000e+02 0.0000000000e+00 0.0000e+00 9.0000e+00
       21  1    1    2  502  501 +9.0739857000e+00 +1.2337081000e+01 +3.2740437000e+01 3.6145221000e+01 0.0000000000e+00 0.0000e+00 9.0000e+00
#aMCatNLO 2  0  0  2  2 0.19422998E+03 0.00000000E+00 -9  7  0 0.00000000E+00 0.00000000E+00 0.00000000E+00 0.00000000E+00 0.00000000E+00
<rwgt>
<wgt id='1001'> +1.9964000e+01 </wgt>
<wgt id='1002'> +1.6027000e+01 </wgt>
<wgt id='1003'> +2.5583000e+01 </wgt>
<wgt id='1004'> +1.8209000e+01 </wgt>
<wgt id='1005'> +1.4619000e+01 </wgt>
<wgt id='1006'> +2.3335000e+01 </wgt>
<wgt id='1007'> +2.2016000e+01 </wgt>
<wgt id='1008'> +1.7675000e+01 </wgt>
<wgt id='1009'> +2.8211000e+01 </wgt>
<wgt id='1010'> +1.9964000e+01 </wgt>
<wgt id='1011'> +2.0475000e+01 </wgt>
<wgt id='1012'> +2.0268000e+01 </wgt>
<wgt id='1013'> +2.0251000e+01 </wgt>
<wgt id='1014'> +1.9995000e+01 </wgt>
<wgt id='1015'> +2.0075000e+01 </wgt>
<wgt id='1016'> +1.9700000e+01 </wgt>
<wgt id='1017'> +2.0116000e+01 </wgt>
<wgt id='1018'> +2.0361000e+01 </wgt>
<wgt id='1019'> +2.0006000e+01 </wgt>
<wgt id='1020'> +2.0807000e+01 </wgt>
<wgt id='1021'> +2.0356000e+01 </wgt>
<wgt id='1022'> +1.9424000e+01 </wgt>
<wgt id='1023'> +1.9263000e+01 </wgt>
<wgt id='1024'> +2.0423000e+01 </wgt>
<wgt id='1025'> +2.0106000e+01 </wgt>
<wgt id='1026'> +1.9986000e+01 </wgt>
<wgt id='1027'> +1.9957000e+01 </wgt>
<wgt id='1028'> +1.9035000e+01 </wgt>
<wgt id='1029'> +1.9728000e+01 </wgt>
<wgt id='1030'> +2.0732000e+01 </wgt>
<wgt id='1031'> +2.0148000e+01 </wgt>
<wgt id='1032'> +2.0488000e+01 </wgt>
<wgt id='1033'> +1.9658000e+01 </wgt>
<wgt id='1034'> +1.9535000e+01 </wgt>
<wgt id='1035'> +1.9468000e+01 </wgt>
<wgt id='1036'> +1.9551000e+01 </wgt>
<wgt id='1037'> +1.9998000e+01 </wgt>
<wgt id='1038'> +1.9809000e+01 </wgt>
<wgt id='1039'> +2.0394000e+01 </wgt>
<wgt id='1040'> +1.9797000e+01 </wgt>
<wgt id='1041'> +1.9725000e+01 </wgt>
<wgt id='1042'> +2.0702000e+01 </wgt>
<wgt id='1043'> +2.0179000e+01 </wgt>
<wgt id='1044'> +1.9447000e+01 </wgt>
<wgt id='1045'> +2.0639000e+01 </wgt>
<wgt id='1046'> +1.9431000e+01 </wgt>
<wgt id='1047'> +1.9406000e+01 </wgt>
<wgt id='1048'> +2.0195000e+01 </wgt>
<wgt id='1049'> +1.9867000e+01 </wgt>
<wgt id='1050'> +1.9721000e+01 </wgt>
<wgt id='1051'> +2.0286000e+01 </wgt>
<wgt id='1052'> +1.9810000e+01 </wgt>
<wgt id='1053'> +1.9616000e+01 </wgt>
<wgt id='1054'> +2.0063000e+01 </wgt>
<wgt id='1055'> +2.0456000e+01 </wgt>
<wgt id='1056'> +1.9541000e+01 </wgt>
<wgt id='1057'> +2.0210000e+01 </wgt>
<wgt id='1058'> +1.9952000e+01 </wgt>
<wgt id='1059'> +2.0082000e+01 </wgt>
<wgt id='1060'> +2.0014000e+01 </wgt>
<wgt id='1061'> +2.0027000e+01 </wgt>
<wgt id='1062'> +2.0201000e+01 </wgt>
<wgt id='1063'> +1.9497000e+01 </wgt>
<wgt id='1064'> +1.9730000e+01 </wgt>
<wgt id='1065'> +1.9932000e+01 </wgt>
<wgt id='1066'> +1.9639000e+01 </wgt>
<wgt id='1067'> +1.9109000e+01 </wgt>
<wgt id='1068'> +2.0036000e+01 </wgt>
<wgt id='1069'> +1.9800000e+01 </wgt>
<wgt id='1070'> +2.0286000e+01 </wgt>
<wgt id='1071'> +1.9604000e+01 </wgt>
<wgt id='1072'> +2.0058000e+01 </wgt>
<wgt id='1073'> +1.8986000e+01 </wgt>
<wgt id='1074'> +1.9250000e+01 </wgt>
<wgt id='1075'> +2.0132000e+01 </wgt>
<wgt id='1076'> +1.9529000e+01 </wgt>
<wgt id='1077'> +2.1818000e+01 </wgt>
<wgt id='1078'> +1.9965000e+01 </wgt>
<wgt id='1079'> +1.9979000e+01 </wgt>
<wgt id='1080'> +1.9910000e+01 </wgt>
<wgt id='1081'> +1.9905000e+01 </wgt>
<wgt id='1082'> +1.9758000e+01 </wgt>
<wgt id='1083'> +2.1309000e+01 </wgt>
<wgt id='1084'> +1.9980000e+01 </wgt>
<wgt id='1085'> +2.0034000e+01 </wgt>
<wgt id='1086'> +2.0344000e+01 </wgt>
<wgt id='1087'> +1.9333000e+01 </wgt>
<wgt id='1088'> +1.9954000e+01 </wgt>
<wgt id='1089'> +2.0170000e+01 </wgt>
<wgt id='1090'> +1.9782000e+01 </wgt>
<wgt id='1091'> +2.0273000e+01 </wgt>
<wgt id='1092'> +2.0135000e+01 </wgt>
<wgt id='1093'> +2.0202000e+01 </wgt>
<wgt id='1094'> +1.9974000e+01 </wgt>
<wgt id='1095'> +2.0365000e+01 </wgt>
<wgt id='1096'> +1.9889000e+01 </wgt>
<wgt id='1097'> +2.0753000e+01 </wgt>
<wgt id='1098'> +2.0160000e+01 </wgt>
<wgt id='1099'> +1.9317000e+01 </wgt>
<wgt id='1100'> +1.9700000e+01 </wgt>
<wgt id='1101'> +2.0056000e+01 </wgt>
<wgt id='1102'> +2.0009000e+01 </wgt>
<wgt id='1103'> +1.9945000e+01 </wgt>
<wgt id='1104'> +2.0526000e+01 </wgt>
<wgt id='1105'> +1.9624000e+01 </wgt>
<wgt id='1106'> +1.9983000e+01 </wgt>
<wgt id='1107'> +1.9409000e+01 </wgt>
<wgt id='1108'> +1.9576000e+01 </wgt>
<wgt id='1109'> +1.9768000e+01 </wgt>
<wgt id='1110'> +1.9222000e+01 </wgt>
<wgt id='1111'> +1.9699000e+01 </wgt>
<wgt id='1112'> +2.0214000e+01 </wgt>
<wgt id='rwgt_1'> +3.0969734e+00 </wgt>
<wgt id='rwgt_2'> +3.5620216e+00 </wgt>
<wgt id='rwgt_3'> +1.2701838e+01 </wgt>
<wgt id='rwgt_4'> +1.3631935e+01 </wgt>
<wgt id='rwgt_5'> +3.0260107e+01 </wgt>
<wgt id='rwgt_6'> +2.8864963e+01 </wgt>
<wgt id='rwgt_7'> +9.7077243e-01 </wgt>
<wgt id='rwgt_8'> +8.0060382e-01 </wgt>
<wgt id='rwgt_9'> +3.5618176e+00 </wgt>
<wgt id='rwgt_10'> +3.2214803e+00 </wgt>
<wgt id='rwgt_11'> +7.8235032e+00 </wgt>
<wgt id='rwgt_12'> +7.3129974e+00 </wgt>
<wgt id='rwgt_13'> +9.7077243e-01 </wgt>
<wgt id='rwgt_14'> +8.0060382e-01 </wgt>
<wgt id='rwgt_15'> +3.5618176e+00 </wgt>
<wgt id='rwgt_16'> +3.2214803e+00 </wgt>
<wgt id='rwgt_17'> +7.8235032e+00 </wgt>
<wgt id='rwgt_18'> +7.3129974e+00 </wgt>
<wgt id='rwgt_19'> +1.9213187e+00 </wgt>
<wgt id='rwgt_20'> +2.3767030e+00 </wgt>
<wgt id='rwgt_21'> +7.9895554e+00 </wgt>
<wgt id='rwgt_22'> +8.9003242e+00 </wgt>
<wgt id='rwgt_23'> +1.8255078e+01 </wgt>
<wgt id='rwgt_24'> +1.9621231e+01 </wgt>
<wgt id='rwgt_25'> +5.5601929e-01 </wgt>
<wgt id='rwgt_26'> +1.2153570e+00 </wgt>
<wgt id='rwgt_27'> +2.7323113e+00 </wgt>
<wgt id='rwgt_28'> +4.0509866e+00 </wgt>
<wgt id='rwgt_29'> +6.5792439e+00 </wgt>
<wgt id='rwgt_30'> +8.5572569e+00 </wgt>
<wgt id='rwgt_31'> +1.0952415e+01 </wgt>
<wgt id='rwgt_32'> +3.0969734e+00 </wgt>
<wgt id='rwgt_33'> +3.0969734e+00 </wgt>
<wgt id='rwgt_34'> +1.9240942e+00 </wgt>
<wgt id='rwgt_35'> +1.7386096e+01 </wgt>
<wgt id='rwgt_36'> +1.6752135e+00 </wgt>
<wgt id='rwgt_37'> +6.1893739e+00 </wgt>
<wgt id='rwgt_38'> +3.8436153e+00 </wgt>
<wgt id='rwgt_39'> +2.5490418e+01 </wgt>
<wgt id='rwgt_40'> +1.9240942e+00 </wgt>
<wgt id='rwgt_41'> +1.0952415e+01 </wgt>
<wgt id='rwgt_42'> +7.4337771e+00 </wgt>
<wgt id='rwgt_43'> +6.1893739e+00 </wgt>
<wgt id='rwgt_44'> +1.6752135e+00 </wgt>
<wgt id='rwgt_45'> +1.7386096e+01 </wgt>
<wgt id='rwgt_46'> +6.1893739e+00 </wgt>
<wgt id='rwgt_47'> +1.6752135e+00 </wgt>
<wgt id='rwgt_48'> +3.8436153e+00 </wgt>
<wgt id='rwgt_49'> +2.5490418e+01 </wgt>
<wgt id='rwgt_50'> +3.0969734e+00 </wgt>
<wgt id='rwgt_51'> +3.0969734e+00 </wgt>
<wgt id='rwgt_52'> +7.4337771e+00 </wgt>
<wgt id='rwgt_53'> +3.5265381e+01 </wgt>
<wgt id='rwgt_54'> +1.6752135e+00 </wgt>
<wgt id='rwgt_55'> +6.1893739e+00 </wgt>
<wgt id='rwgt_56'> +1.2694579e+01 </wgt>
<wgt id='rwgt_57'> +1.0952415e+01 </wgt>
<wgt id='rwgt_58'> +1.9240942e+00 </wgt>
<wgt id='rwgt_59'> +2.5490418e+01 </wgt>
<wgt id='rwgt_60'> +1.0952415e+01 </wgt>
<wgt id='rwgt_61'> +1.9240942e+00 </wgt>
<wgt id='rwgt_62'> +7.4337771e+00 </wgt>
<wgt id='rwgt_63'> +3.5265381e+01 </wgt>
<wgt id='rwgt_64'> +6.1893739e+00 </wgt>
<wgt id='rwgt_65'> +1.6752135e+00 </wgt>
<wgt id='rwgt_66'> +1.2694579e+01 </wgt>
<wgt id='rwgt_67'> +4.6710984e+01 </wgt>
<wgt id='rwgt_68'> +3.0969734e+00 </wgt>
<wgt id='rwgt_69'> +3.0969734e+00 </wgt>
<wgt id='rwgt_70'> +1.9626022e+01 </wgt>
<wgt id='rwgt_71'> +1.7386096e+01 </wgt>
<wgt id='rwgt_72'> +3.8436153e+00 </wgt>
<wgt id='rwgt_73'> +6.1893739e+00 </wgt>
<wgt id='rwgt_74'> +1.6752135e+00 </wgt>
<wgt id='rwgt_75'> +1.0952415e+01 </wgt>
<wgt id='rwgt_76'> +1.9240942e+00 </wgt>
<wgt id='rwgt_77'> +1.7386096e+01 </wgt>
<wgt id='rwgt_78'> +3.8436153e+00 </wgt>
<wgt id='rwgt_79'> +3.0969734e+00 </wgt>
<wgt id='rwgt_80'> +2.7294796e+00 </wgt>
<wgt id='rwgt_81'> +3.5620216e+00 </wgt>
<wgt id='rwgt_82'> +3.5620216e+00 </wgt>
<wgt id='rwgt_83'> +1.1077126e+01 </wgt>
<wgt id='rwgt_84'> +4.8191694e+00 </wgt>
<wgt id='rwgt_85'> +6.4842535e+00 </wgt>
<wgt id='rwgt_86'> +2.3104303e+00 </wgt>
<wgt id='rwgt_87'> +1.7340639e+01 </wgt>
<wgt id='rwgt_88'> +8.5794997e+00 </wgt>
<wgt id='rwgt_89'> +1.1077126e+01 </wgt>
<wgt id='rwgt_90'> +2.7294796e+00 </wgt>
<wgt id='rwgt_91'> +2.5274792e+01 </wgt>
<wgt id='rwgt_92'> +2.3104303e+00 </wgt>
<wgt id='rwgt_93'> +6.4842535e+00 </wgt>
<wgt id='rwgt_94'> +4.8191694e+00 </wgt>
<wgt id='rwgt_95'> +2.3104303e+00 </wgt>
<wgt id='rwgt_96'> +6.4842535e+00 </wgt>
<wgt id='rwgt_97'> +1.7340639e+01 </wgt>
<wgt id='rwgt_98'> +8.5794997e+00 </wgt>
<wgt id='rwgt_99'> +3.5620216e+00 </wgt>
<wgt id='rwgt_100'> +3.5620216e+00 </wgt>
<wgt id='rwgt_101'> +2.5274792e+01 </wgt>
<wgt id='rwgt_102'> +1.4010471e+01 </wgt>
<wgt id='rwgt_103'> +6.4842535e+00 </wgt>
<wgt id='rwgt_104'> +2.3104303e+00 </wgt>
<wgt id='rwgt_105'> +3.4879586e+01 </wgt>
<wgt id='rwgt_106'> +2.7294796e+00 </wgt>
<wgt id='rwgt_107'> +1.1077126e+01 </wgt>
<wgt id='rwgt_108'> +8.5794997e+00 </wgt>
<wgt id='rwgt_109'> +2.7294796e+00 </wgt>
<wgt id='rwgt_110'> +1.1077126e+01 </wgt>
<wgt id='rwgt_111'> +2.5274792e+01 </wgt>
<wgt id='rwgt_112'> +1.4010471e+01 </wgt>
<wgt id='rwgt_113'> +2.3104303e+00 </wgt>
<wgt id='rwgt_114'> +6.4842535e+00 </wgt>
<wgt id='rwgt_115'> +3.4879586e+01 </wgt>
<wgt id='rwgt_116'> +2.1112082e+01 </wgt>
<wgt id='rwgt_117'> +3.5620216e+00 </wgt>
<wgt id='rwgt_118'> +3.5620216e+00 </wgt>
<wgt id='rwgt_119'> +4.6155021e+01 </wgt>
<wgt id='rwgt_120'> +4.8191694e+00 </wgt>
<wgt id='rwgt_121'> +1.7340639e+01 </wgt>
<wgt id='rwgt_122'> +2.3104303e+00 </wgt>
<wgt id='rwgt_123'> +6.4842535e+00 </wgt>
<wgt id='rwgt_124'> +2.7294796e+00 </wgt>
<wgt id='rwgt_125'> +1.1077126e+01 </wgt>
<wgt id='rwgt_126'> +4.8191694e+00 </wgt>
<wgt id='rwgt_127'> +1.7340639e+01 </wgt>
<wgt id='rwgt_128'> +3.5620216e+00 </wgt>
<wgt id='rwgt_129'> +2.4901271e+01 </wgt>
<wgt id='rwgt_130'> +1.2701838e+01 </wgt>
<wgt id='rwgt_131'> +1.2701838e+01 </wgt>
<wgt id='rwgt_132'> +7.1849673e+00 </wgt>
<wgt id='rwgt_133'> +3.3506949e+01 </wgt>
<wgt id='rwgt_134'> +9.1080825e+00 </wgt>
<wgt id='rwgt_135'> +1.7966235e+01 </wgt>
<wgt id='rwgt_136'> +6.9324926e+00 </wgt>
<wgt id='rwgt_137'> +4.3783267e+01 </wgt>
<wgt id='rwgt_138'> +7.1849673e+00 </wgt>
<wgt id='rwgt_139'> +2.4901271e+01 </wgt>
<wgt id='rwgt_140'> +8.3506585e+00 </wgt>
<wgt id='rwgt_141'> +1.7966235e+01 </wgt>
<wgt id='rwgt_142'> +9.1080825e+00 </wgt>
<wgt id='rwgt_143'> +3.3506949e+01 </wgt>
<wgt id='rwgt_144'> +1.7966235e+01 </wgt>
<wgt id='rwgt_145'> +9.1080825e+00 </wgt>
<wgt id='rwgt_146'> +6.9324926e+00 </wgt>
<wgt id='rwgt_147'> +4.3783267e+01 </wgt>
<wgt id='rwgt_148'> +1.2701838e+01 </wgt>
<wgt id='rwgt_149'> +1.2701838e+01 </wgt>
<wgt id='rwgt_150'> +8.3506585e+00 </wgt>
<wgt id='rwgt_151'> +5.5730225e+01 </wgt>
<wgt id='rwgt_152'> +9.1080825e+00 </wgt>
<wgt id='rwgt_153'> +1.7966235e+01 </wgt>
<wgt id='rwgt_154'> +1.1439465e+01 </wgt>
<wgt id='rwgt_155'> +2.4901271e+01 </wgt>
<wgt id='rwgt_156'> +7.1849673e+00 </wgt>
<wgt id='rwgt_157'> +4.3783267e+01 </wgt>
<wgt id='rwgt_158'> +2.4901271e+01 </wgt>
<wgt id='rwgt_159'> +7.1849673e+00 </wgt>
<wgt id='rwgt_160'> +8.3506585e+00 </wgt>
<wgt id='rwgt_161'> +5.5730225e+01 </wgt>
<wgt id='rwgt_162'> +1.7966235e+01 </wgt>
<wgt id='rwgt_163'> +9.1080825e+00 </wgt>
<wgt id='rwgt_164'> +1.1439465e+01 </wgt>
<wgt id='rwgt_165'> +6.9347824e+01 </wgt>
<wgt id='rwgt_166'> +1.2701838e+01 </wgt>
<wgt id='rwgt_167'> +1.2701838e+01 </wgt>
<wgt id='rwgt_168'> +1.6198912e+01 </wgt>
<wgt id='rwgt_169'> +3.3506949e+01 </wgt>
<wgt id='rwgt_170'> +6.9324926e+00 </wgt>
<wgt id='rwgt_171'> +1.7966235e+01 </wgt>
<wgt id='rwgt_172'> +9.1080825e+00 </wgt>
<wgt id='rwgt_173'> +2.4901271e+01 </wgt>
<wgt id='rwgt_174'> +7.1849673e+00 </wgt>
<wgt id='rwgt_175'> +3.3506949e+01 </wgt>
<wgt id='rwgt_176'> +6.9324926e+00 </wgt>
<wgt id='rwgt_177'> +1.2701838e+01 </wgt>
<wgt id='rwgt_178'> +8.4554009e+00 </wgt>
<wgt id='rwgt_179'> +1.3631935e+01 </wgt>
<wgt id='rwgt_180'> +1.3631935e+01 </wgt>
<wgt id='rwgt_181'> +2.5491031e+01 </wgt>
<wgt id='rwgt_182'> +8.3730949e+00 </wgt>
<wgt id='rwgt_183'> +1.8726162e+01 </wgt>
<wgt id='rwgt_184'> +1.0208348e+01 </wgt>
<wgt id='rwgt_185'> +3.3926540e+01 </wgt>
<wgt id='rwgt_186'> +9.9614293e+00 </wgt>
<wgt id='rwgt_187'> +2.5491031e+01 </wgt>
<wgt id='rwgt_188'> +8.4554009e+00 </wgt>
<wgt id='rwgt_189'> +4.4032689e+01 </wgt>
<wgt id='rwgt_190'> +1.0208348e+01 </wgt>
<wgt id='rwgt_191'> +1.8726162e+01 </wgt>
<wgt id='rwgt_192'> +8.3730949e+00 </wgt>
<wgt id='rwgt_193'> +1.0208348e+01 </wgt>
<wgt id='rwgt_194'> +1.8726162e+01 </wgt>
<wgt id='rwgt_195'> +3.3926540e+01 </wgt>
<wgt id='rwgt_196'> +9.9614293e+00 </wgt>
<wgt id='rwgt_197'> +1.3631935e+01 </wgt>
<wgt id='rwgt_198'> +1.3631935e+01 </wgt>
<wgt id='rwgt_199'> +4.4032689e+01 </wgt>
<wgt id='rwgt_200'> +1.3220404e+01 </wgt>
<wgt id='rwgt_201'> +1.8726162e+01 </wgt>
<wgt id='rwgt_202'> +1.0208348e+01 </wgt>
<wgt id='rwgt_203'> +5.5809479e+01 </wgt>
<wgt id='rwgt_204'> +8.4554009e+00 </wgt>
<wgt id='rwgt_205'> +2.5491031e+01 </wgt>
<wgt id='rwgt_206'> +9.9614293e+00 </wgt>
<wgt id='rwgt_207'> +8.4554009e+00 </wgt>
<wgt id='rwgt_208'> +2.5491031e+01 </wgt>
<wgt id='rwgt_209'> +4.4032689e+01 </wgt>
<wgt id='rwgt_210'> +1.3220404e+01 </wgt>
<wgt id='rwgt_211'> +1.0208348e+01 </wgt>
<wgt id='rwgt_212'> +1.8726162e+01 </wgt>
<wgt id='rwgt_213'> +5.5809479e+01 </wgt>
<wgt id='rwgt_214'> +1.8150020e+01 </wgt>
<wgt id='rwgt_215'> +1.3631935e+01 </wgt>
<wgt id='rwgt_216'> +1.3631935e+01 </wgt>
<wgt id='rwgt_217'> +6.9256909e+01 </wgt>
<wgt id='rwgt_218'> +8.3730949e+00 </wgt>
<wgt id='rwgt_219'> +3.3926540e+01 </wgt>
<wgt id='rwgt_220'> +1.0208348e+01 </wgt>
<wgt id='rwgt_221'> +1.8726162e+01 </wgt>
<wgt id='rwgt_222'> +8.4554009e+00 </wgt>
<wgt id='rwgt_223'> +2.5491031e+01 </wgt>
<wgt id='rwgt_224'> +8.3730949e+00 </wgt>
<wgt id='rwgt_225'> +3.3926540e+01 </wgt>
<wgt id='rwgt_226'> +1.3631935e+01 </wgt>
<wgt id='rwgt_227'> +4.5408387e+01 </wgt>
<wgt id='rwgt_228'> +2.8864963e+01 </wgt>
<wgt id='rwgt_229'> +2.8864963e+01 </wgt>
<wgt id='rwgt_230'> +1.9004100e+01 </wgt>
<wgt id='rwgt_231'> +5.6186061e+01 </wgt>
<wgt id='rwgt_232'> +2.3099211e+01 </wgt>
<wgt id='rwgt_233'> +3.6301355e+01 </wgt>
<wgt id='rwgt_234'> +1.6579629e+01 </wgt>
<wgt id='rwgt_235'> +6.8634375e+01 </wgt>
<wgt id='rwgt_236'> +1.9004100e+01 </wgt>
<wgt id='rwgt_237'> +4.5408387e+01 </wgt>
<wgt id='rwgt_238'> +1.5825799e+01 </wgt>
<wgt id='rwgt_239'> +3.6301355e+01 </wgt>
<wgt id='rwgt_240'> +2.3099211e+01 </wgt>
<wgt id='rwgt_241'> +5.6186061e+01 </wgt>
<wgt id='rwgt_242'> +3.6301355e+01 </wgt>
<wgt id='rwgt_243'> +2.3099211e+01 </wgt>
<wgt id='rwgt_244'> +1.6579629e+01 </wgt>
<wgt id='rwgt_245'> +6.8634375e+01 </wgt>
<wgt id='rwgt_246'> +2.8864963e+01 </wgt>
<wgt id='rwgt_247'> +2.8864963e+01 </wgt>
<wgt id='rwgt_248'> +1.5825799e+01 </wgt>
<wgt id='rwgt_249'> +8.2753329e+01 </wgt>
<wgt id='rwgt_250'> +2.3099211e+01 </wgt>
<wgt id='rwgt_251'> +3.6301355e+01 </wgt>
<wgt id='rwgt_252'> +1.6742610e+01 </wgt>
<wgt id='rwgt_253'> +4.5408387e+01 </wgt>
<wgt id='rwgt_254'> +1.9004100e+01 </wgt>
<wgt id='rwgt_255'> +6.8634375e+01 </wgt>
<wgt id='rwgt_256'> +4.5408387e+01 </wgt>
<wgt id='rwgt_257'> +1.9004100e+01 </wgt>
<wgt id='rwgt_258'> +1.5825799e+01 </wgt>
<wgt id='rwgt_259'> +8.2753329e+01 </wgt>
<wgt id='rwgt_260'> +3.6301355e+01 </wgt>
<wgt id='rwgt_261'> +2.3099211e+01 </wgt>
<wgt id='rwgt_262'> +1.6742610e+01 </wgt>
<wgt id='rwgt_263'> +9.8542924e+01 </wgt>
<wgt id='rwgt_264'> +2.8864963e+01 </wgt>
<wgt id='rwgt_265'> +2.8864963e+01 </wgt>
<wgt id='rwgt_266'> +1.9330061e+01 </wgt>
<wgt id='rwgt_267'> +5.6186061e+01 </wgt>
<wgt id='rwgt_268'> +1.6579629e+01 </wgt>
<wgt id='rwgt_269'> +3.6301355e+01 </wgt>
<wgt id='rwgt_270'> +2.3099211e+01 </wgt>
<wgt id='rwgt_271'> +4.5408387e+01 </wgt>
<wgt id='rwgt_272'> +1.9004100e+01 </wgt>
<wgt id='rwgt_273'> +5.6186061e+01 </wgt>
<wgt id='rwgt_274'> +1.6579629e+01 </wgt>
<wgt id='rwgt_275'> +2.8864963e+01 </wgt>
<wgt id='rwgt_276'> +2.0739582e+01 </wgt>
<wgt id='rwgt_277'> +3.0260107e+01 </wgt>
<wgt id='rwgt_278'> +3.0260107e+01 </wgt>
<wgt id='rwgt_279'> +4.6463195e+01 </wgt>
<wgt id='rwgt_280'> +1.8485280e+01 </wgt>
<wgt id='rwgt_281'> +3.7526331e+01 </wgt>
<wgt id='rwgt_282'> +2.4664524e+01 </wgt>
<wgt id='rwgt_283'> +5.7070700e+01 </wgt>
<wgt id='rwgt_284'> +1.7901618e+01 </wgt>
<wgt id='rwgt_285'> +4.6463195e+01 </wgt>
<wgt id='rwgt_286'> +2.0739582e+01 </wgt>
<wgt id='rwgt_287'> +6.9348845e+01 </wgt>
<wgt id='rwgt_288'> +2.4664524e+01 </wgt>
<wgt id='rwgt_289'> +3.7526331e+01 </wgt>
<wgt id='rwgt_290'> +1.8485280e+01 </wgt>
<wgt id='rwgt_291'> +2.4664524e+01 </wgt>
<wgt id='rwgt_292'> +3.7526331e+01 </wgt>
<wgt id='rwgt_293'> +5.7070700e+01 </wgt>
<wgt id='rwgt_294'> +1.7901618e+01 </wgt>
<wgt id='rwgt_295'> +3.0260107e+01 </wgt>
<wgt id='rwgt_296'> +3.0260107e+01 </wgt>
<wgt id='rwgt_297'> +6.9348845e+01 </wgt>
<wgt id='rwgt_298'> +1.8988597e+01 </wgt>
<wgt id='rwgt_299'> +3.7526331e+01 </wgt>
<wgt id='rwgt_300'> +2.4664524e+01 </wgt>
<wgt id='rwgt_301'> +8.3297631e+01 </wgt>
<wgt id='rwgt_302'> +2.0739582e+01 </wgt>
<wgt id='rwgt_303'> +4.6463195e+01 </wgt>
<wgt id='rwgt_304'> +1.7901618e+01 </wgt>
<wgt id='rwgt_305'> +2.0739582e+01 </wgt>
<wgt id='rwgt_306'> +4.6463195e+01 </wgt>
<wgt id='rwgt_307'> +6.9348845e+01 </wgt>
<wgt id='rwgt_308'> +1.8988597e+01 </wgt>
<wgt id='rwgt_309'> +2.4664524e+01 </wgt>
<wgt id='rwgt_310'> +3.7526331e+01 </wgt>
<wgt id='rwgt_311'> +8.3297631e+01 </wgt>
<wgt id='rwgt_312'> +2.1746217e+01 </wgt>
<wgt id='rwgt_313'> +3.0260107e+01 </wgt>
<wgt id='rwgt_314'> +3.0260107e+01 </wgt>
<wgt id='rwgt_315'> +9.8917057e+01 </wgt>
<wgt id='rwgt_316'> +1.8485280e+01 </wgt>
<wgt id='rwgt_317'> +5.7070700e+01 </wgt>
<wgt id='rwgt_318'> +2.4664524e+01 </wgt>
<wgt id='rwgt_319'> +3.7526331e+01 </wgt>
<wgt id='rwgt_320'> +2.0739582e+01 </wgt>
<wgt id='rwgt_321'> +4.6463195e+01 </wgt>
<wgt id='rwgt_322'> +1.8485280e+01 </wgt>
<wgt id='rwgt_323'> +5.7070700e+01 </wgt>
<wgt id='rwgt_324'> +3.0260107e+01 </wgt>
<wgt id='rwgt_325'> +3.5618176e+00 </wgt>
<wgt id='rwgt_326'> +5.0367852e-02 </wgt>
<wgt id='rwgt_327'> +5.0367852e-02 </wgt>
<wgt id='rwgt_328'> +3.2214803e+00 </wgt>
<wgt id='rwgt_329'> +7.8235032e+00 </wgt>
<wgt id='rwgt_330'> +8.0060382e-01 </wgt>
<wgt id='rwgt_331'> +9.7077243e-01 </wgt>
<wgt id='rwgt_332'> +7.3129974e+00 </wgt>
<wgt id='rwgt_333'> +1.3755829e+01 </wgt>
<wgt id='rwgt_334'> +3.2214803e+00 </wgt>
<wgt id='rwgt_335'> +3.5618176e+00 </wgt>
<wgt id='rwgt_336'> +1.3075155e+01 </wgt>
<wgt id='rwgt_337'> +9.7077243e-01 </wgt>
<wgt id='rwgt_338'> +8.0060382e-01 </wgt>
<wgt id='rwgt_339'> +7.8235032e+00 </wgt>
<wgt id='rwgt_340'> +9.7077243e-01 </wgt>
<wgt id='rwgt_341'> +8.0060382e-01 </wgt>
<wgt id='rwgt_342'> +7.3129974e+00 </wgt>
<wgt id='rwgt_343'> +1.3755829e+01 </wgt>
<wgt id='rwgt_344'> +5.0367852e-02 </wgt>
<wgt id='rwgt_345'> +5.0367852e-02 </wgt>
<wgt id='rwgt_346'> +1.3075155e+01 </wgt>
<wgt id='rwgt_347'> +2.1358796e+01 </wgt>
<wgt id='rwgt_348'> +8.0060382e-01 </wgt>
<wgt id='rwgt_349'> +9.7077243e-01 </wgt>
<wgt id='rwgt_350'> +2.0507953e+01 </wgt>
<wgt id='rwgt_351'> +3.5618176e+00 </wgt>
<wgt id='rwgt_352'> +3.2214803e+00 </wgt>
<wgt id='rwgt_353'> +1.3755829e+01 </wgt>
<wgt id='rwgt_354'> +3.5618176e+00 </wgt>
<wgt id='rwgt_355'> +3.2214803e+00 </wgt>
<wgt id='rwgt_356'> +1.3075155e+01 </wgt>
<wgt id='rwgt_357'> +2.1358796e+01 </wgt>
<wgt id='rwgt_358'> +9.7077243e-01 </wgt>
<wgt id='rwgt_359'> +8.0060382e-01 </wgt>
<wgt id='rwgt_360'> +2.0507953e+01 </wgt>
<wgt id='rwgt_361'> +3.0632404e+01 </wgt>
<wgt id='rwgt_362'> +5.0367852e-02 </wgt>
<wgt id='rwgt_363'> +5.0367852e-02 </wgt>
<wgt id='rwgt_364'> +2.9611392e+01 </wgt>
<wgt id='rwgt_365'> +7.8235032e+00 </wgt>
<wgt id='rwgt_366'> +7.3129974e+00 </wgt>
<wgt id='rwgt_367'> +9.7077243e-01 </wgt>
<wgt id='rwgt_368'> +8.0060382e-01 </wgt>
<wgt id='rwgt_369'> +3.5618176e+00 </wgt>
<wgt id='rwgt_370'> +3.2214803e+00 </wgt>
<wgt id='rwgt_371'> +7.8235032e+00 </wgt>
<wgt id='rwgt_372'> +7.3129974e+00 </wgt>
<wgt id='rwgt_373'> +5.0367852e-02 </wgt>
</rwgt>
</event>
<event npLO=" -1 " npNLO=" 1 ">
 7      1 +1.9963618e+01 2.11333220e+01 7.54677110e-03 1.29001620e-01
        1 -1    0    0  502    0 +0.0000000000e+00 +0.0000000000e+00 +6.5324859000e+02 6.5324859000e+02 0.0000000000e+00 0.0000e+00 9.0000e+00
       -2 -1    0    0    0  501 +0.0000000000e+00 +0.0000000000e+00 -1.0720545000e+02 1.0720545000e+02 0.0000000000e+00 0.0000e+00 9.0000e+00
      -24  2    1    2    0    0 -1.8006884000e+00 -2.3038421000e+02 +3.4203448000e+02 4.2031931000e+02 8.1244155000e+01 0.0000e+00 0.0000e+00
       11  1    3    3    0    0 -5.7533249000e-01 -1.1808264000e+02 +1.0496099000e+02 1.5798940000e+02 0.0000000000e+00 0.0000e+00 9.0000e+00
      -12  1    3    3    0    0 -1.2253559000e+00 -1.1230157000e+02 +2.3707349000e+02 2.6232991000e+02 0.0000000000e+00 0.0000e+00 9.0000e+00
       22  1    1    2    0    0 +1.5668380000e+01 +2.4633113000e+02 +1.6865631000e+02 2.9894728000e+02 0.0000000000e+00 0.0000e+00 9.0000e+00
       21  1    1    2  502  501 -1.3867691000e+01 -1.5946926000e+01 +3.5352347000e+01 4.1187447000e+01 0.0000000000e+00 0.0000e+00 9.0000e+00
#aMCatNLO 1  0  0  1  6 0.72425875E+02 0.00000000E+00 -9  7  0 0.00000000E+00 0.00000000E+00 0.00000000E+00 0.00000000E+00 0.00000000E+00
<rwgt>
<wgt id='1001'> +1.9963000e+01 </wgt>
<wgt id='1002'> +1.6944000e+01 </wgt>
<wgt id='1003'> +2.4228000e+01 </wgt>
<wgt id='1004'> +2.5106000e+01 </wgt>
<wgt id='1005'> +2.0936000e+01 </wgt>
<wgt id='1006'> +3.1114000e+01 </wgt>
<wgt id='1007'> +1.5104000e+01 </wgt>
<wgt id='1008'> +1.3161000e+01 </wgt>
<wgt id='1009'> +1.7739000e+01 </wgt>
<wgt id='1010'> +1.9963000e+01 </wgt>
<wgt id='1011'> +1.9261000e+01 </wgt>
<wgt id='1012'> +1.9604000e+01 </wgt>
<wgt id='1013'> +2.0299000e+01 </wgt>
<wgt id='1014'> +2.1136000e+01 </wgt>
<wgt id='1015'> +1.8846000e+01 </wgt>
<wgt id='1016'> +1.9886000e+01 </wgt>
<wgt id='1017'> +2.0555000e+01 </wgt>
<wgt id='1018'> +1.9818000e+01 </wgt>
<wgt id='1019'> +2.0017000e+01 </wgt>
<wgt id='1020'> +1.9954000e+01 </wgt>
<wgt id='1021'> +2.0060000e+01 </wgt>
<wgt id='1022'> +1.9500000e+01 </wgt>
<wgt id='1023'> +2.0730000e+01 </wgt>
<wgt id='1024'> +1.9778000e+01 </wgt>
<wgt id='1025'> +1.9795000e+01 </wgt>
<wgt id='1026'> +1.9127000e+01 </wgt>
<wgt id='1027'> +1.9215000e+01 </wgt>
<wgt id='1028'> +1.8270000e+01 </wgt>
<wgt id='1029'> +1.9730000e+01 </wgt>
<wgt id='1030'> +2.0494000e+01 </wgt>
<wgt id='1031'> +2.1026000e+01 </wgt>
<wgt id='1032'> +2.0701000e+01 </wgt>
<wgt id='1033'> +2.0098000e+01 </wgt>
<wgt id='1034'> +2.0551000e+01 </wgt>
<wgt id='1035'> +1.9738000e+01 </wgt>
<wgt id='1036'> +2.0242000e+01 </wgt>
<wgt id='1037'> +1.9027000e+01 </wgt>
<wgt id='1038'> +1.9845000e+01 </wgt>
<wgt id='1039'> +2.0053000e+01 </wgt>
<wgt id='1040'> +1.9877000e+01 </wgt>
<wgt id='1041'> +2.0345000e+01 </wgt>
<wgt id='1042'> +2.1006000e+01 </wgt>
<wgt id='1043'> +2.0625000e+01 </wgt>
<wgt id='1044'> +1.9855000e+01 </wgt>
<wgt id='1045'> +2.0442000e+01 </wgt>
<wgt id='1046'> +1.9286000e+01 </wgt>
<wgt id='1047'> +1.9218000e+01 </wgt>
<wgt id='1048'> +1.9581000e+01 </wgt>
<wgt id='1049'> +1.9749000e+01 </wgt>
<wgt id='1050'> +2.0240000e+01 </wgt>
<wgt id='1051'> +2.0462000e+01 </wgt>
<wgt id='1052'> +1.9743000e+01 </wgt>
<wgt id='1053'> +2.0356000e+01 </wgt>
<wgt id='1054'> +1.9865000e+01 </wgt>
<wgt id='1055'> +2.0371000e+01 </wgt>
<wgt id='1056'> +1.9454000e+01 </wgt>
<wgt id='1057'> +1.9336000e+01 </wgt>
<wgt id='1058'> +1.9925000e+01 </wgt>
<wgt id='1059'> +1.9827000e+01 </wgt>
<wgt id='1060'> +2.0498000e+01 </wgt>
<wgt id='1061'> +2.0689000e+01 </wgt>
<wgt id='1062'> +2.0397000e+01 </wgt>
<wgt id='1063'> +1.9250000e+01 </wgt>
<wgt id='1064'> +2.0578000e+01 </wgt>
<wgt id='1065'> +2.0529000e+01 </wgt>
<wgt id='1066'> +1.9180000e+01 </wgt>
<wgt id='1067'> +2.0023000e+01 </wgt>
<wgt id='1068'> +2.0477000e+01 </wgt>
<wgt id='1069'> +1.9154000e+01 </wgt>
<wgt id='1070'> +2.0594000e+01 </wgt>
<wgt id='1071'> +2.0179000e+01 </wgt>
<wgt id='1072'> +1.9699000e+01 </wgt>
<wgt id='1073'> +1.8940000e+01 </wgt>
<wgt id='1074'> +1.7976000e+01 </wgt>
<wgt id='1075'> +2.0216000e+01 </wgt>
<wgt id='1076'> +2.0052000e+01 </wgt>
<wgt id='1077'> +2.2011000e+01 </wgt>
<wgt id='1078'> +2.0170000e+01 </wgt>
<wgt id='1079'> +1.9865000e+01 </wgt>
<wgt id='1080'> +2.0405000e+01 </wgt>
<wgt id='1081'> +2.0398000e+01 </wgt>
<wgt id='1082'> +1.9408000e+01 </wgt>
<wgt id='1083'> +2.0429000e+01 </wgt>
<wgt id='1084'> +2.0309000e+01 </wgt>
<wgt id='1085'> +1.9636000e+01 </wgt>
<wgt id='1086'> +2.0629000e+01 </wgt>
<wgt id='1087'> +2.0072000e+01 </wgt>
<wgt id='1088'> +2.0044000e+01 </wgt>
<wgt id='1089'> +2.0132000e+01 </wgt>
<wgt id='1090'> +2.0515000e+01 </wgt>
<wgt id='1091'> +2.0389000e+01 </wgt>
<wgt id='1092'> +2.0511000e+01 </wgt>
<wgt id='1093'> +1.9795000e+01 </wgt>
<wgt id='1094'> +2.0011000e+01 </wgt>
<wgt id='1095'> +2.0346000e+01 </wgt>
<wgt id='1096'> +1.9404000e+01 </wgt>
<wgt id='1097'> +2.0649000e+01 </wgt>
<wgt id='1098'> +2.0484000e+01 </wgt>
<wgt id='1099'> +1.9374000e+01 </wgt>
<wgt id='1100'> +2.0089000e+01 </wgt>
<wgt id='1101'> +2.0038000e+01 </wgt>
<wgt id='1102'> +2.0459000e+01 </wgt>
<wgt id='1103'> +1.9684000e+01 </wgt>
<wgt id='1104'> +1.9450000e+01 </wgt>
<wgt id='1105'> +1.8379000e+01 </wgt>
<wgt id='1106'> +1.9938000e+01 </wgt>
<wgt id='1107'> +1.9346000e+01 </wgt>
<wgt id='1108'> +2.0342000e+01 </wgt>
<wgt id='1109'> +2.0046000e+01 </wgt>
<wgt id='1110'> +1.8383000e+01 </wgt>
<wgt id='1111'> +1.9686000e+01 </wgt>
<wgt id='1112'> +2.0394000e+01 </wgt>
<wgt id='rwgt_1'> +4.7884327e+00 </wgt>
<wgt id='rwgt_2'> +2.8285983e+00 </wgt>
<wgt id='rwgt_3'> +1.3599955e+01 </wgt>
<wgt id='rwgt_4'> +9.6802865e+00 </wgt>
<wgt id='rwgt_5'> +2.1753045e+01 </wgt>
<wgt id='rwgt_6'> +2.7632548e+01 </wgt>
<wgt id='rwgt_7'> +2.2343023e+00 </wgt>
<wgt id='rwgt_8'> +6.1250850e+00 </wgt>
<wgt id='rwgt_9'> +9.2340508e+00 </wgt>
<wgt id='rwgt_10'> +1.7015616e+01 </wgt>
<wgt id='rwgt_11'> +2.2197226e+01 </wgt>
<wgt id='rwgt_12'> +3.3869574e+01 </wgt>
<wgt id='rwgt_13'> +2.2343023e+00 </wgt>
<wgt id='rwgt_14'> +6.1250850e+00 </wgt>
<wgt id='rwgt_15'> +9.2340508e+00 </wgt>
<wgt id='rwgt_16'> +1.7015616e+01 </wgt>
<wgt id='rwgt_17'> +2.2197226e+01 </wgt>
<wgt id='rwgt_18'> +3.3869574e+01 </wgt>
<wgt id='rwgt_19'> +2.9092081e+00 </wgt>
<wgt id='rwgt_20'> +2.8282375e+00 </wgt>
<wgt id='rwgt_21'> +7.9619207e+00 </wgt>
<wgt id='rwgt_22'> +7.7999796e+00 </wgt>
<wgt id='rwgt_23'> +1.6356118e+01 </wgt>
<wgt id='rwgt_24'> +1.6113207e+01 </wgt>
<wgt id='rwgt_25'> +4.1290817e+00 </wgt>
<wgt id='rwgt_26'> +4.2303054e+00 </wgt>
<wgt id='rwgt_27'> +1.3023610e+01 </wgt>
<wgt id='rwgt_28'> +1.3226057e+01 </wgt>
<wgt id='rwgt_29'> +2.7881564e+01 </wgt>
<wgt id='rwgt_30'> +2.8185235e+01 </wgt>
<wgt id='rwgt_31'> +2.0538952e+00 </wgt>
<wgt id='rwgt_32'> +4.7884327e+00 </wgt>
<wgt id='rwgt_33'> +4.7884327e+00 </wgt>
<wgt id='rwgt_34'> +3.1376677e+01 </wgt>
<wgt id='rwgt_35'> +9.6317663e+00 </wgt>
<wgt id='rwgt_36'> +1.5100841e+01 </wgt>
<wgt id='rwgt_37'> +4.3945061e-01 </wgt>
<wgt id='rwgt_38'> +5.3615938e+01 </wgt>
<wgt id='rwgt_39'> +2.3173064e+01 </wgt>
<wgt id='rwgt_40'> +3.1376677e+01 </wgt>
<wgt id='rwgt_41'> +2.0538952e+00 </wgt>
<wgt id='rwgt_42'> +8.1818627e+01 </wgt>
<wgt id='rwgt_43'> +4.3945061e-01 </wgt>
<wgt id='rwgt_44'> +1.5100841e+01 </wgt>
<wgt id='rwgt_45'> +9.6317663e+00 </wgt>
<wgt id='rwgt_46'> +4.3945061e-01 </wgt>
<wgt id='rwgt_47'> +1.5100841e+01 </wgt>
<wgt id='rwgt_48'> +5.3615938e+01 </wgt>
<wgt id='rwgt_49'> +2.3173064e+01 </wgt>
<wgt id='rwgt_50'> +4.7884327e+00 </wgt>
<wgt id='rwgt_51'> +4.7884327e+00 </wgt>
<wgt id='rwgt_52'> +8.1818627e+01 </wgt>
<wgt id='rwgt_53'> +4.2677788e+01 </wgt>
<wgt id='rwgt_54'> +1.5100841e+01 </wgt>
<wgt id='rwgt_55'> +4.3945061e-01 </wgt>
<wgt id='rwgt_56'> +1.1598474e+02 </wgt>
<wgt id='rwgt_57'> +2.0538952e+00 </wgt>
<wgt id='rwgt_58'> +3.1376677e+01 </wgt>
<wgt id='rwgt_59'> +2.3173064e+01 </wgt>
<wgt id='rwgt_60'> +2.0538952e+00 </wgt>
<wgt id='rwgt_61'> +3.1376677e+01 </wgt>
<wgt id='rwgt_62'> +8.1818627e+01 </wgt>
<wgt id='rwgt_63'> +4.2677788e+01 </wgt>
<wgt id='rwgt_64'> +4.3945061e-01 </wgt>
<wgt id='rwgt_65'> +1.5100841e+01 </wgt>
<wgt id='rwgt_66'> +1.1598474e+02 </wgt>
<wgt id='rwgt_67'> +6.8145939e+01 </wgt>
<wgt id='rwgt_68'> +4.7884327e+00 </wgt>
<wgt id='rwgt_69'> +4.7884327e+00 </wgt>
<wgt id='rwgt_70'> +1.5611428e+02 </wgt>
<wgt id='rwgt_71'> +9.6317663e+00 </wgt>
<wgt id='rwgt_72'> +5.3615938e+01 </wgt>
<wgt id='rwgt_73'> +4.3945061e-01 </wgt>
<wgt id='rwgt_74'> +1.5100841e+01 </wgt>
<wgt id='rwgt_75'> +2.0538952e+00 </wgt>
<wgt id='rwgt_76'> +3.1376677e+01 </wgt>
<wgt id='rwgt_77'> +9.6317663e+00 </wgt>
<wgt id='rwgt_78'> +5.3615938e+01 </wgt>
<wgt id='rwgt_79'> +4.7884327e+00 </wgt>
<wgt id='rwgt_80'> +2.1635277e+01 </wgt>
<wgt id='rwgt_81'> +2.8285983e+00 </wgt>
<wgt id='rwgt_82'> +2.8285983e+00 </wgt>
<wgt id='rwgt_83'> +7.8756262e+00 </wgt>
<wgt id='rwgt_84'> +3.9983756e+01 </wgt>
<wgt id='rwgt_85'> +2.3703989e+00 </wgt>
<wgt id='rwgt_86'> +9.2502242e+00 </wgt>
<wgt id='rwgt_87'> +1.9344280e+01 </wgt>
<wgt id='rwgt_88'> +6.4295662e+01 </wgt>
<wgt id='rwgt_89'> +7.8756262e+00 </wgt>
<wgt id='rwgt_90'> +2.1635277e+01 </wgt>
<wgt id='rwgt_91'> +3.6776360e+01 </wgt>
<wgt id='rwgt_92'> +9.2502242e+00 </wgt>
<wgt id='rwgt_93'> +2.3703989e+00 </wgt>
<wgt id='rwgt_94'> +3.9983756e+01 </wgt>
<wgt id='rwgt_95'> +9.2502242e+00 </wgt>
<wgt id='rwgt_96'> +2.3703989e+00 </wgt>
<wgt id='rwgt_97'> +1.9344280e+01 </wgt>
<wgt id='rwgt_98'> +6.4295662e+01 </wgt>
<wgt id='rwgt_99'> +2.8285983e+00 </wgt>
<wgt id='rwgt_100'> +2.8285983e+00 </wgt>
<wgt id='rwgt_101'> +3.6776360e+01 </wgt>
<wgt id='rwgt_102'> +9.4570994e+01 </wgt>
<wgt id='rwgt_103'> +2.3703989e+00 </wgt>
<wgt id='rwgt_104'> +9.2502242e+00 </wgt>
<wgt id='rwgt_105'> +6.0171868e+01 </wgt>
<wgt id='rwgt_106'> +2.1635277e+01 </wgt>
<wgt id='rwgt_107'> +7.8756262e+00 </wgt>
<wgt id='rwgt_108'> +6.4295662e+01 </wgt>
<wgt id='rwgt_109'> +2.1635277e+01 </wgt>
<wgt id='rwgt_110'> +7.8756262e+00 </wgt>
<wgt id='rwgt_111'> +3.6776360e+01 </wgt>
<wgt id='rwgt_112'> +9.4570994e+01 </wgt>
<wgt id='rwgt_113'> +9.2502242e+00 </wgt>
<wgt id='rwgt_114'> +2.3703989e+00 </wgt>
<wgt id='rwgt_115'> +6.0171868e+01 </wgt>
<wgt id='rwgt_116'> +1.3080975e+02 </wgt>
<wgt id='rwgt_117'> +2.8285983e+00 </wgt>
<wgt id='rwgt_118'> +2.8285983e+00 </wgt>
<wgt id='rwgt_119'> +8.9530801e+01 </wgt>
<wgt id='rwgt_120'> +3.9983756e+01 </wgt>
<wgt id='rwgt_121'> +1.9344280e+01 </wgt>
<wgt id='rwgt_122'> +9.2502242e+00 </wgt>
<wgt id='rwgt_123'> +2.3703989e+00 </wgt>
<wgt id='rwgt_124'> +2.1635277e+01 </wgt>
<wgt id='rwgt_125'> +7.8756262e+00 </wgt>
<wgt id='rwgt_126'> +3.9983756e+01 </wgt>
<wgt id='rwgt_127'> +1.9344280e+01 </wgt>
<wgt id='rwgt_128'> +2.8285983e+00 </wgt>
<wgt id='rwgt_129'> +9.4809788e-02 </wgt>
<wgt id='rwgt_130'> +1.3599955e+01 </wgt>
<wgt id='rwgt_131'> +1.3599955e+01 </wgt>
<wgt id='rwgt_132'> +5.0958807e+01 </wgt>
<wgt id='rwgt_133'> +2.2873769e+00 </wgt>
<wgt id='rwgt_134'> +2.9297668e+01 </wgt>
<wgt id='rwgt_135'> +3.8656693e+00 </wgt>
<wgt id='rwgt_136'> +7.8583373e+01 </wgt>
<wgt id='rwgt_137'> +1.0443371e+01 </wgt>
<wgt id='rwgt_138'> +5.0958807e+01 </wgt>
<wgt id='rwgt_139'> +9.4809788e-02 </wgt>
<wgt id='rwgt_140'> +1.1217137e+02 </wgt>
<wgt id='rwgt_141'> +3.8656693e+00 </wgt>
<wgt id='rwgt_142'> +2.9297668e+01 </wgt>
<wgt id='rwgt_143'> +2.2873769e+00 </wgt>
<wgt id='rwgt_144'> +3.8656693e+00 </wgt>
<wgt id='rwgt_145'> +2.9297668e+01 </wgt>
<wgt id='rwgt_146'> +7.8583373e+01 </wgt>
<wgt id='rwgt_147'> +1.0443371e+01 </wgt>
<wgt id='rwgt_148'> +1.3599955e+01 </wgt>
<wgt id='rwgt_149'> +1.3599955e+01 </wgt>
<wgt id='rwgt_150'> +1.1217137e+02 </wgt>
<wgt id='rwgt_151'> +2.4562791e+01 </wgt>
<wgt id='rwgt_152'> +2.9297668e+01 </wgt>
<wgt id='rwgt_153'> +3.8656693e+00 </wgt>
<wgt id='rwgt_154'> +1.5172278e+02 </wgt>
<wgt id='rwgt_155'> +9.4809788e-02 </wgt>
<wgt id='rwgt_156'> +5.0958807e+01 </wgt>
<wgt id='rwgt_157'> +1.0443371e+01 </wgt>
<wgt id='rwgt_158'> +9.4809788e-02 </wgt>
<wgt id='rwgt_159'> +5.0958807e+01 </wgt>
<wgt id='rwgt_160'> +1.1217137e+02 </wgt>
<wgt id='rwgt_161'> +2.4562791e+01 </wgt>
<wgt id='rwgt_162'> +3.8656693e+00 </wgt>
<wgt id='rwgt_163'> +2.9297668e+01 </wgt>
<wgt id='rwgt_164'> +1.5172278e+02 </wgt>
<wgt id='rwgt_165'> +4.4645638e+01 </wgt>
<wgt id='rwgt_166'> +1.3599955e+01 </wgt>
<wgt id='rwgt_167'> +1.3599955e+01 </wgt>
<wgt id='rwgt_168'> +1.9723763e+02 </wgt>
<wgt id='rwgt_169'> +2.2873769e+00 </wgt>
<wgt id='rwgt_170'> +7.8583373e+01 </wgt>
<wgt id='rwgt_171'> +3.8656693e+00 </wgt>
<wgt id='rwgt_172'> +2.9297668e+01 </wgt>
<wgt id='rwgt_173'> +9.4809788e-02 </wgt>
<wgt id='rwgt_174'> +5.0958807e+01 </wgt>
<wgt id='rwgt_175'> +2.2873769e+00 </wgt>
<wgt id='rwgt_176'> +7.8583373e+01 </wgt>
<wgt id='rwgt_177'> +1.3599955e+01 </wgt>
<wgt id='rwgt_178'> +3.9257573e+01 </wgt>
<wgt id='rwgt_179'> +9.6802865e+00 </wgt>
<wgt id='rwgt_180'> +9.6802865e+00 </wgt>
<wgt id='rwgt_181'> +3.9567064e+00 </wgt>
<wgt id='rwgt_182'> +6.2991356e+01 </wgt>
<wgt id='rwgt_183'> +3.8367832e+00 </wgt>
<wgt id='rwgt_184'> +2.1487216e+01 </wgt>
<wgt id='rwgt_185'> +1.0040056e+01 </wgt>
<wgt id='rwgt_186'> +9.2688566e+01 </wgt>
<wgt id='rwgt_187'> +3.9567064e+00 </wgt>
<wgt id='rwgt_188'> +3.9257573e+01 </wgt>
<wgt id='rwgt_189'> +2.2086833e+01 </wgt>
<wgt id='rwgt_190'> +2.1487216e+01 </wgt>
<wgt id='rwgt_191'> +3.8367832e+00 </wgt>
<wgt id='rwgt_192'> +6.2991356e+01 </wgt>
<wgt id='rwgt_193'> +2.1487216e+01 </wgt>
<wgt id='rwgt_194'> +3.8367832e+00 </wgt>
<wgt id='rwgt_195'> +1.0040056e+01 </wgt>
<wgt id='rwgt_196'> +9.2688566e+01 </wgt>
<wgt id='rwgt_197'> +9.6802865e+00 </wgt>
<wgt id='rwgt_198'> +9.6802865e+00 </wgt>
<wgt id='rwgt_199'> +2.2086833e+01 </wgt>
<wgt id='rwgt_200'> +1.2834920e+02 </wgt>
<wgt id='rwgt_201'> +3.8367832e+00 </wgt>
<wgt id='rwgt_202'> +2.1487216e+01 </wgt>
<wgt id='rwgt_203'> +4.0097036e+01 </wgt>
<wgt id='rwgt_204'> +3.9257573e+01 </wgt>
<wgt id='rwgt_205'> +3.9567064e+00 </wgt>
<wgt id='rwgt_206'> +9.2688566e+01 </wgt>
<wgt id='rwgt_207'> +3.9257573e+01 </wgt>
<wgt id='rwgt_208'> +3.9567064e+00 </wgt>
<wgt id='rwgt_209'> +2.2086833e+01 </wgt>
<wgt id='rwgt_210'> +1.2834920e+02 </wgt>
<wgt id='rwgt_211'> +2.1487216e+01 </wgt>
<wgt id='rwgt_212'> +3.8367832e+00 </wgt>
<wgt id='rwgt_213'> +4.0097036e+01 </wgt>
<wgt id='rwgt_214'> +1.6997327e+02 </wgt>
<wgt id='rwgt_215'> +9.6802865e+00 </wgt>
<wgt id='rwgt_216'> +9.6802865e+00 </wgt>
<wgt id='rwgt_217'> +6.4070665e+01 </wgt>
<wgt id='rwgt_218'> +6.2991356e+01 </wgt>
<wgt id='rwgt_219'> +1.0040056e+01 </wgt>
<wgt id='rwgt_220'> +2.1487216e+01 </wgt>
<wgt id='rwgt_221'> +3.8367832e+00 </wgt>
<wgt id='rwgt_222'> +3.9257573e+01 </wgt>
<wgt id='rwgt_223'> +3.9567064e+00 </wgt>
<wgt id='rwgt_224'> +6.2991356e+01 </wgt>
<wgt id='rwgt_225'> +1.0040056e+01 </wgt>
<wgt id='rwgt_226'> +9.6802865e+00 </wgt>
<wgt id='rwgt_227'> +3.3567947e+00 </wgt>
<wgt id='rwgt_228'> +2.7632548e+01 </wgt>
<wgt id='rwgt_229'> +2.7632548e+01 </wgt>
<wgt id='rwgt_230'> +7.5762008e+01 </wgt>
<wgt id='rwgt_231'> +1.6405785e-01 </wgt>
<wgt id='rwgt_232'> +4.8715565e+01 </wgt>
<wgt id='rwgt_233'> +1.2512958e+01 </wgt>
<wgt id='rwgt_234'> +1.0877188e+02 </wgt>
<wgt id='rwgt_235'> +2.9347476e+00 </wgt>
<wgt id='rwgt_236'> +7.5762008e+01 </wgt>
<wgt id='rwgt_237'> +3.3567947e+00 </wgt>
<wgt id='rwgt_238'> +1.4774517e+02 </wgt>
<wgt id='rwgt_239'> +1.2512958e+01 </wgt>
<wgt id='rwgt_240'> +4.8715565e+01 </wgt>
<wgt id='rwgt_241'> +1.6405785e-01 </wgt>
<wgt id='rwgt_242'> +1.2512958e+01 </wgt>
<wgt id='rwgt_243'> +4.8715565e+01 </wgt>
<wgt id='rwgt_244'> +1.0877188e+02 </wgt>
<wgt id='rwgt_245'> +2.9347476e+00 </wgt>
<wgt id='rwgt_246'> +2.7632548e+01 </wgt>
<wgt id='rwgt_247'> +2.7632548e+01 </wgt>
<wgt id='rwgt_248'> +1.4774517e+02 </wgt>
<wgt id='rwgt_249'> +1.1668864e+01 </wgt>
<wgt id='rwgt_250'> +4.8715565e+01 </wgt>
<wgt id='rwgt_251'> +1.2512958e+01 </wgt>
<wgt id='rwgt_252'> +1.9268190e+02 </wgt>
<wgt id='rwgt_253'> +3.3567947e+00 </wgt>
<wgt id='rwgt_254'> +7.5762008e+01 </wgt>
<wgt id='rwgt_255'> +2.9347476e+00 </wgt>
<wgt id='rwgt_256'> +3.3567947e+00 </wgt>
<wgt id='rwgt_257'> +7.5762008e+01 </wgt>
<wgt id='rwgt_258'> +1.4774517e+02 </wgt>
<wgt id='rwgt_259'> +1.1668864e+01 </wgt>
<wgt id='rwgt_260'> +1.2512958e+01 </wgt>
<wgt id='rwgt_261'> +4.8715565e+01 </wgt>
<wgt id='rwgt_262'> +1.9268190e+02 </wgt>
<wgt id='rwgt_263'> +2.6366407e+01 </wgt>
<wgt id='rwgt_264'> +2.7632548e+01 </wgt>
<wgt id='rwgt_265'> +2.7632548e+01 </wgt>
<wgt id='rwgt_266'> +2.4358205e+02 </wgt>
<wgt id='rwgt_267'> +1.6405785e-01 </wgt>
<wgt id='rwgt_268'> +1.0877188e+02 </wgt>
<wgt id='rwgt_269'> +1.2512958e+01 </wgt>
<wgt id='rwgt_270'> +4.8715565e+01 </wgt>
<wgt id='rwgt_271'> +3.3567947e+00 </wgt>
<wgt id='rwgt_272'> +7.5762008e+01 </wgt>
<wgt id='rwgt_273'> +1.6405785e-01 </wgt>
<wgt id='rwgt_274'> +1.0877188e+02 </wgt>
<wgt id='rwgt_275'> +2.7632548e+01 </wgt>
<wgt id='rwgt_276'> +6.2100940e+01 </wgt>
<wgt id='rwgt_277'> +2.1753045e+01 </wgt>
<wgt id='rwgt_278'> +2.1753045e+01 </wgt>
<wgt id='rwgt_279'> +5.2588569e+00 </wgt>
<wgt id='rwgt_280'> +9.1220027e+01 </wgt>
<wgt id='rwgt_281'> +1.0524238e+01 </wgt>
<wgt id='rwgt_282'> +3.8945279e+01 </wgt>
<wgt id='rwgt_283'> +5.9569028e+00 </wgt>
<wgt id='rwgt_284'> +1.2630254e+02 </wgt>
<wgt id='rwgt_285'> +5.2588569e+00 </wgt>
<wgt id='rwgt_286'> +6.2100940e+01 </wgt>
<wgt id='rwgt_287'> +1.2618375e+01 </wgt>
<wgt id='rwgt_288'> +3.8945279e+01 </wgt>
<wgt id='rwgt_289'> +1.0524238e+01 </wgt>
<wgt id='rwgt_290'> +9.1220027e+01 </wgt>
<wgt id='rwgt_291'> +3.8945279e+01 </wgt>
<wgt id='rwgt_292'> +1.0524238e+01 </wgt>
<wgt id='rwgt_293'> +5.9569028e+00 </wgt>
<wgt id='rwgt_294'> +1.2630254e+02 </wgt>
<wgt id='rwgt_295'> +2.1753045e+01 </wgt>
<wgt id='rwgt_296'> +2.1753045e+01 </wgt>
<wgt id='rwgt_297'> +1.2618375e+01 </wgt>
<wgt id='rwgt_298'> +1.6734848e+02 </wgt>
<wgt id='rwgt_299'> +1.0524238e+01 </wgt>
<wgt id='rwgt_300'> +3.8945279e+01 </wgt>
<wgt id='rwgt_301'> +2.5243274e+01 </wgt>
<wgt id='rwgt_302'> +6.2100940e+01 </wgt>
<wgt id='rwgt_303'> +5.2588569e+00 </wgt>
<wgt id='rwgt_304'> +1.2630254e+02 </wgt>
<wgt id='rwgt_305'> +6.2100940e+01 </wgt>
<wgt id='rwgt_306'> +5.2588569e+00 </wgt>
<wgt id='rwgt_307'> +1.2618375e+01 </wgt>
<wgt id='rwgt_308'> +1.6734848e+02 </wgt>
<wgt id='rwgt_309'> +3.8945279e+01 </wgt>
<wgt id='rwgt_310'> +1.0524238e+01 </wgt>
<wgt id='rwgt_311'> +2.5243274e+01 </wgt>
<wgt id='rwgt_312'> +2.1435785e+02 </wgt>
<wgt id='rwgt_313'> +2.1753045e+01 </wgt>
<wgt id='rwgt_314'> +2.1753045e+01 </wgt>
<wgt id='rwgt_315'> +4.3831600e+01 </wgt>
<wgt id='rwgt_316'> +9.1220027e+01 </wgt>
<wgt id='rwgt_317'> +5.9569028e+00 </wgt>
<wgt id='rwgt_318'> +3.8945279e+01 </wgt>
<wgt id='rwgt_319'> +1.0524238e+01 </wgt>
<wgt id='rwgt_320'> +6.2100940e+01 </wgt>
<wgt id='rwgt_321'> +5.2588569e+00 </wgt>
<wgt id='rwgt_322'> +9.1220027e+01 </wgt>
<wgt id='rwgt_323'> +5.9569028e+00 </wgt>
<wgt id='rwgt_324'> +2.1753045e+01 </wgt>
<wgt id='rwgt_325'> +9.2340508e+00 </wgt>
<wgt id='rwgt_326'> +1.1979803e+00 </wgt>
<wgt id='rwgt_327'> +1.1979803e+00 </wgt>
<wgt id='rwgt_328'> +1.7015616e+01 </wgt>
<wgt id='rwgt_329'> +2.2197226e+01 </wgt>
<wgt id='rwgt_330'> +6.1250850e+00 </wgt>
<wgt id='rwgt_331'> +2.2343023e+00 </wgt>
<wgt id='rwgt_332'> +3.3869574e+01 </wgt>
<wgt id='rwgt_333'> +4.1123828e+01 </wgt>
<wgt id='rwgt_334'> +1.7015616e+01 </wgt>
<wgt id='rwgt_335'> +9.2340508e+00 </wgt>
<wgt id='rwgt_336'> +5.6686959e+01 </wgt>
<wgt id='rwgt_337'> +2.2343023e+00 </wgt>
<wgt id='rwgt_338'> +6.1250850e+00 </wgt>
<wgt id='rwgt_339'> +2.2197226e+01 </wgt>
<wgt id='rwgt_340'> +2.2343023e+00 </wgt>
<wgt id='rwgt_341'> +6.1250850e+00 </wgt>
<wgt id='rwgt_342'> +3.3869574e+01 </wgt>
<wgt id='rwgt_343'> +4.1123828e+01 </wgt>
<wgt id='rwgt_344'> +1.1979803e+00 </wgt>
<wgt id='rwgt_345'> +1.1979803e+00 </wgt>
<wgt id='rwgt_346'> +5.6686959e+01 </wgt>
<wgt id='rwgt_347'> +6.6013856e+01 </wgt>
<wgt id='rwgt_348'> +6.1250850e+00 </wgt>
<wgt id='rwgt_349'> +2.2343023e+00 </wgt>
<wgt id='rwgt_350'> +8.5467770e+01 </wgt>
<wgt id='rwgt_351'> +9.2340508e+00 </wgt>
<wgt id='rwgt_352'> +1.7015616e+01 </wgt>
<wgt id='rwgt_353'> +4.1123828e+01 </wgt>
<wgt id='rwgt_354'> +9.2340508e+00 </wgt>
<wgt id='rwgt_355'> +1.7015616e+01 </wgt>
<wgt id='rwgt_356'> +5.6686959e+01 </wgt>
<wgt id='rwgt_357'> +6.6013856e+01 </wgt>
<wgt id='rwgt_358'> +2.2343023e+00 </wgt>
<wgt id='rwgt_359'> +6.1250850e+00 </wgt>
<wgt id='rwgt_360'> +8.5467770e+01 </wgt>
<wgt id='rwgt_361'> +9.6867311e+01 </wgt>
<wgt id='rwgt_362'> +1.1979803e+00 </wgt>
<wgt id='rwgt_363'> +1.1979803e+00 </wgt>
<wgt id='rwgt_364'> +1.2021201e+02 </wgt>
<wgt id='rwgt_365'> +2.2197226e+01 </wgt>
<wgt id='rwgt_366'> +3.3869574e+01 </wgt>
<wgt id='rwgt_367'> +2.2343023e+00 </wgt>
<wgt id='rwgt_368'> +6.1250850e+00 </wgt>
<wgt id='rwgt_369'> +9.2340508e+00 </wgt>
<wgt id='rwgt_370'> +1.7015616e+01 </wgt>
<wgt id='rwgt_371'> +2.2197226e+01 </wgt>
<wgt id='rwgt_372'> +3.3869574e+01 </wgt>
<wgt id='rwgt_373'> +1.1979803e+00 </wgt>
</rwgt>
</event>
</LesHouchesEvents>
